
     Program PWSCF v.6.1 (svn rev. 13369) starts on  2Apr2019 at 23:54:52 

     This program is part of the open-source Quantum ESPRESSO suite
     for quantum simulation of materials; please cite
         "P. Giannozzi et al., J. Phys.:Condens. Matter 21 395502 (2009);
          URL http://www.quantum-espresso.org", 
     in publications or presentations arising from this work. More details at
     http://www.quantum-espresso.org/quote

     Serial version
     Waiting for input...
     Reading input from standard input
Warning: card &IONS ignored
Warning: card     ION_DYNAMICS='BFGS' ignored
Warning: card / ignored
Warning: card &CELL ignored
Warning: card     PRESS_CONV_THR=0.1 ignored
Warning: card / ignored

     Current dimensions of program PWSCF are:
     Max number of different atomic species (ntypx) = 10
     Max number of k-points (npk) =  40000
     Max angular momentum in pseudopotentials (lmaxx) =  3

     Atomic positions and unit cell read from directory:
     ./tmp/pwscf.save/


     G-vector sticks info
     --------------------
     sticks:   dense  smooth     PW     G-vecs:    dense   smooth      PW
     Sum        1165     475    151                26565     6735    1139



     bravais-lattice index     =            0
     lattice parameter (alat)  =       1.8897  a.u.
     unit-cell volume          =     141.5464 (a.u.)^3
     number of atoms/cell      =            2
     number of atomic types    =            2
     number of electrons       =         8.00
     number of Kohn-Sham states=            8
     kinetic-energy cutoff     =      50.0000  Ry
     charge density cutoff     =     500.0000  Ry
     Exchange-correlation      = PBE ( 1  4  3  4 0 0)

     celldm(1)=   1.889726  celldm(2)=   0.000000  celldm(3)=   0.000000
     celldm(4)=   0.000000  celldm(5)=   0.000000  celldm(6)=   0.000000

     crystal axes: (cart. coord. in units of alat)
               a(1) = (   2.188890   2.188890   0.000000 )  
               a(2) = (   0.000000   2.188890   2.188890 )  
               a(3) = (   2.188890   0.000000   2.188890 )  

     reciprocal axes: (cart. coord. in units 2 pi/alat)
               b(1) = (  0.228426  0.228426 -0.228426 )  
               b(2) = ( -0.228426  0.228426  0.228426 )  
               b(3) = (  0.228426 -0.228426  0.228426 )  


     PseudoPot. # 1 for Si read from file:
     ./Si.UPF
     MD5 check sum: c1dbf6addbc430d555b7ee244f9ddb0e
     Pseudo is Ultrasoft + core correction, Zval =  4.0
     Generated using "atomic" code by A. Dal Corso  v.5.4.0
     Using radial grid of 1141 points,  4 beta functions with: 
                l(1) =   0
                l(2) =   0
                l(3) =   1
                l(4) =   1
     Q(r) pseudized with 0 coefficients 


     PseudoPot. # 2 for  C read from file:
     ./C.UPF
     MD5 check sum: ab2a259a8df52b5ef32245f590d8fbaf
     Pseudo is Ultrasoft + core correction, Zval =  4.0
     Generated using "atomic" code by A. Dal Corso  v.5.4.0
     Using radial grid of 1073 points,  4 beta functions with: 
                l(1) =   0
                l(2) =   0
                l(3) =   1
                l(4) =   1
     Q(r) pseudized with 0 coefficients 


     atomic species   valence    mass     pseudopotential
        Si             4.00     1.00000     Si( 1.00)
        C              4.00     1.00000      C( 1.00)

     24 Sym. Ops. (no inversion) found



   Cartesian axes

     site n.     atom                  positions (alat units)
         1           Si  tau(   1) = (   0.0000000  -0.0000000  -0.0000000  )
         2           C   tau(   2) = (   1.0944452   1.0944452   1.0944452  )

     number of k points=    61  gaussian smearing, width (Ry)=  0.0000
                       cart. coord. in units 2pi/alat
        k(    1) = (   0.2284262  -0.0000000   0.0000000), wk =   0.0327869
        k(    2) = (   0.2208120  -0.0000000   0.0000000), wk =   0.0327869
        k(    3) = (   0.2131978  -0.0000000   0.0000000), wk =   0.0327869
        k(    4) = (   0.2055836  -0.0000000   0.0000000), wk =   0.0327869
        k(    5) = (   0.1979694  -0.0000000   0.0000000), wk =   0.0327869
        k(    6) = (   0.1903552  -0.0000000   0.0000000), wk =   0.0327869
        k(    7) = (   0.1827410  -0.0000000   0.0000000), wk =   0.0327869
        k(    8) = (   0.1751268  -0.0000000   0.0000000), wk =   0.0327869
        k(    9) = (   0.1675126  -0.0000000   0.0000000), wk =   0.0327869
        k(   10) = (   0.1598984  -0.0000000   0.0000000), wk =   0.0327869
        k(   11) = (   0.1522842  -0.0000000   0.0000000), wk =   0.0327869
        k(   12) = (   0.1446699  -0.0000000   0.0000000), wk =   0.0327869
        k(   13) = (   0.1370557  -0.0000000   0.0000000), wk =   0.0327869
        k(   14) = (   0.1294415  -0.0000000   0.0000000), wk =   0.0327869
        k(   15) = (   0.1218273  -0.0000000   0.0000000), wk =   0.0327869
        k(   16) = (   0.1142131  -0.0000000   0.0000000), wk =   0.0327869
        k(   17) = (   0.1065989  -0.0000000   0.0000000), wk =   0.0327869
        k(   18) = (   0.0989847  -0.0000000   0.0000000), wk =   0.0327869
        k(   19) = (   0.0913705  -0.0000000   0.0000000), wk =   0.0327869
        k(   20) = (   0.0837563  -0.0000000   0.0000000), wk =   0.0327869
        k(   21) = (   0.0761421  -0.0000000   0.0000000), wk =   0.0327869
        k(   22) = (   0.0685279  -0.0000000   0.0000000), wk =   0.0327869
        k(   23) = (   0.0609137  -0.0000000   0.0000000), wk =   0.0327869
        k(   24) = (   0.0532995  -0.0000000   0.0000000), wk =   0.0327869
        k(   25) = (   0.0456852  -0.0000000   0.0000000), wk =   0.0327869
        k(   26) = (   0.0380710  -0.0000000   0.0000000), wk =   0.0327869
        k(   27) = (   0.0304568  -0.0000000   0.0000000), wk =   0.0327869
        k(   28) = (   0.0228426  -0.0000000   0.0000000), wk =   0.0327869
        k(   29) = (   0.0152284  -0.0000000   0.0000000), wk =   0.0327869
        k(   30) = (   0.0076142  -0.0000000   0.0000000), wk =   0.0327869
        k(   31) = (   0.0000000   0.0000000   0.0000000), wk =   0.0327869
        k(   32) = (   0.0038071   0.0038071   0.0038071), wk =   0.0327869
        k(   33) = (   0.0076142   0.0076142   0.0076142), wk =   0.0327869
        k(   34) = (   0.0114213   0.0114213   0.0114213), wk =   0.0327869
        k(   35) = (   0.0152284   0.0152284   0.0152284), wk =   0.0327869
        k(   36) = (   0.0190355   0.0190355   0.0190355), wk =   0.0327869
        k(   37) = (   0.0228426   0.0228426   0.0228426), wk =   0.0327869
        k(   38) = (   0.0266497   0.0266497   0.0266497), wk =   0.0327869
        k(   39) = (   0.0304568   0.0304568   0.0304568), wk =   0.0327869
        k(   40) = (   0.0342639   0.0342639   0.0342639), wk =   0.0327869
        k(   41) = (   0.0380710   0.0380710   0.0380710), wk =   0.0327869
        k(   42) = (   0.0418781   0.0418781   0.0418781), wk =   0.0327869
        k(   43) = (   0.0456852   0.0456852   0.0456852), wk =   0.0327869
        k(   44) = (   0.0494923   0.0494923   0.0494923), wk =   0.0327869
        k(   45) = (   0.0532995   0.0532995   0.0532995), wk =   0.0327869
        k(   46) = (   0.0571066   0.0571066   0.0571066), wk =   0.0327869
        k(   47) = (   0.0609137   0.0609137   0.0609137), wk =   0.0327869
        k(   48) = (   0.0647208   0.0647208   0.0647208), wk =   0.0327869
        k(   49) = (   0.0685279   0.0685279   0.0685279), wk =   0.0327869
        k(   50) = (   0.0723350   0.0723350   0.0723350), wk =   0.0327869
        k(   51) = (   0.0761421   0.0761421   0.0761421), wk =   0.0327869
        k(   52) = (   0.0799492   0.0799492   0.0799492), wk =   0.0327869
        k(   53) = (   0.0837563   0.0837563   0.0837563), wk =   0.0327869
        k(   54) = (   0.0875634   0.0875634   0.0875634), wk =   0.0327869
        k(   55) = (   0.0913705   0.0913705   0.0913705), wk =   0.0327869
        k(   56) = (   0.0951776   0.0951776   0.0951776), wk =   0.0327869
        k(   57) = (   0.0989847   0.0989847   0.0989847), wk =   0.0327869
        k(   58) = (   0.1027918   0.1027918   0.1027918), wk =   0.0327869
        k(   59) = (   0.1065989   0.1065989   0.1065989), wk =   0.0327869
        k(   60) = (   0.1104060   0.1104060   0.1104060), wk =   0.0327869
        k(   61) = (   0.1142131   0.1142131   0.1142131), wk =   0.0327869

     Dense  grid:    26565 G-vectors     FFT dimensions: (  45,  45,  45)

     Smooth grid:     6735 G-vectors     FFT dimensions: (  27,  27,  27)

     Estimated max dynamical RAM per process >      17.03MB

     The potential is recalculated from file :
     ./tmp/pwscf.save/charge-density.dat

     Starting wfc are    8 randomized atomic wfcs

     Band Structure Calculation
     Davidson diagonalization with overlap

     ethr =  1.25E-11,  avg # of iterations = 15.1

     total cpu time spent up to now is        6.9 secs

     End of band structure calculation

          k = 0.2284-0.0000 0.0000 (   846 PWs)   bands (ev):

    -1.0462   1.5384   6.1300   6.1300  10.6699  13.5770  23.1515  23.1515

          k = 0.2208-0.0000 0.0000 (   846 PWs)   bands (ev):

    -1.0948   1.5924   6.1359   6.1359  10.6828  13.5857  23.1273  23.1273

          k = 0.2132-0.0000 0.0000 (   834 PWs)   bands (ev):

    -1.2295   1.7434   6.1536   6.1536  10.7214  13.6119  23.0557  23.0557

          k = 0.2056-0.0000 0.0000 (   830 PWs)   bands (ev):

    -1.4262   1.9669   6.1829   6.1829  10.7858  13.6556  22.9398  22.9398

          k = 0.1980-0.0000 0.0000 (   830 PWs)   bands (ev):

    -1.6618   2.2396   6.2239   6.2239  10.8756  13.7168  22.7840  22.7840

          k = 0.1904-0.0000 0.0000 (   822 PWs)   bands (ev):

    -1.9193   2.5440   6.2764   6.2764  10.9909  13.7958  22.5935  22.5935

          k = 0.1827-0.0000 0.0000 (   830 PWs)   bands (ev):

    -2.1876   2.8686   6.3403   6.3403  11.1312  13.8927  22.3737  22.3737

          k = 0.1751-0.0000 0.0000 (   838 PWs)   bands (ev):

    -2.4597   3.2057   6.4153   6.4153  11.2959  14.0077  22.1298  22.1298

          k = 0.1675-0.0000 0.0000 (   842 PWs)   bands (ev):

    -2.7309   3.5502   6.5012   6.5012  11.4843  14.1411  21.8664  21.8664

          k = 0.1599-0.0000 0.0000 (   838 PWs)   bands (ev):

    -2.9979   3.8982   6.5977   6.5977  11.6952  14.2931  21.5876  21.5876

          k = 0.1523-0.0000 0.0000 (   837 PWs)   bands (ev):

    -3.2587   4.2471   6.7044   6.7044  11.9271  14.4640  21.2967  21.2967

          k = 0.1447-0.0000 0.0000 (   837 PWs)   bands (ev):

    -3.5114   4.5947   6.8210   6.8210  12.1778  14.6536  20.9967  20.9967

          k = 0.1371-0.0000 0.0000 (   833 PWs)   bands (ev):

    -3.7550   4.9395   6.9470   6.9470  12.4449  14.8617  20.6900  20.6900

          k = 0.1294-0.0000 0.0000 (   841 PWs)   bands (ev):

    -3.9885   5.2804   7.0816   7.0816  12.7254  15.0872  20.3788  20.3788

          k = 0.1218-0.0000 0.0000 (   849 PWs)   bands (ev):

    -4.2111   5.6164   7.2243   7.2243  13.0158  15.3277  20.0650  20.0650

          k = 0.1142-0.0000 0.0000 (   849 PWs)   bands (ev):

    -4.4222   5.9467   7.3743   7.3743  13.3125  15.5784  19.7503  19.7503

          k = 0.1066-0.0000 0.0000 (   849 PWs)   bands (ev):

    -4.6213   6.2709   7.5305   7.5305  13.6119  15.8312  19.4365  19.4365

          k = 0.0990-0.0000 0.0000 (   849 PWs)   bands (ev):

    -4.8080   6.5883   7.6920   7.6920  13.9105  16.0722  19.1255  19.1255

          k = 0.0914-0.0000 0.0000 (   853 PWs)   bands (ev):

    -4.9819   6.8983   7.8572   7.8572  14.2050  16.2816  18.8189  18.8189

          k = 0.0838-0.0000 0.0000 (   853 PWs)   bands (ev):

    -5.1428   7.2000   8.0248   8.0248  14.4925  16.4344  18.5191  18.5191

          k = 0.0761-0.0000 0.0000 (   861 PWs)   bands (ev):

    -5.2905   7.4926   8.1929   8.1929  14.7704  16.5091  18.2281  18.2281

          k = 0.0685-0.0000 0.0000 (   869 PWs)   bands (ev):

    -5.4246   7.7744   8.3593   8.3593  15.0356  16.4997  17.9486  17.9486

          k = 0.0609-0.0000 0.0000 (   869 PWs)   bands (ev):

    -5.5450   8.0435   8.5217   8.5217  15.2837  16.4202  17.6836  17.6836

          k = 0.0533-0.0000 0.0000 (   869 PWs)   bands (ev):

    -5.6516   8.2975   8.6772   8.6772  15.5070  16.2985  17.4363  17.4363

          k = 0.0457-0.0000 0.0000 (   873 PWs)   bands (ev):

    -5.7443   8.5328   8.8227   8.8227  15.6831  16.1776  17.2101  17.2101

          k = 0.0381-0.0000 0.0000 (   869 PWs)   bands (ev):

    -5.8228   8.7456   8.9548   8.9548  15.7431  16.1429  17.0091  17.0091

          k = 0.0305-0.0000 0.0000 (   877 PWs)   bands (ev):

    -5.8872   8.9309   9.0697   9.0697  15.6636  16.2293  16.8372  16.8372

          k = 0.0228-0.0000 0.0000 (   869 PWs)   bands (ev):

    -5.9373   9.0833   9.1640   9.1640  15.5490  16.3414  16.6983  16.6983

          k = 0.0152-0.0000 0.0000 (   869 PWs)   bands (ev):

    -5.9732   9.1974   9.2341   9.2341  15.4506  16.4335  16.5961  16.5961

          k = 0.0076-0.0000 0.0000 (   869 PWs)   bands (ev):

    -5.9947   9.2681   9.2774   9.2774  15.3864  16.4922  16.5334  16.5334

          k = 0.0000 0.0000 0.0000 (   869 PWs)   bands (ev):

    -6.0019   9.2921   9.2921   9.2921  15.3642  16.5123  16.5123  16.5123

          k = 0.0038 0.0038 0.0038 (   869 PWs)   bands (ev):

    -5.9965   9.2601   9.2881   9.2881  15.3807  16.5139  16.5199  16.5199

          k = 0.0076 0.0076 0.0076 (   869 PWs)   bands (ev):

    -5.9804   9.1659   9.2762   9.2762  15.4269  16.5207  16.5422  16.5422

          k = 0.0114 0.0114 0.0114 (   872 PWs)   bands (ev):

    -5.9535   9.0142   9.2568   9.2568  15.4926  16.5387  16.5785  16.5785

          k = 0.0152 0.0152 0.0152 (   872 PWs)   bands (ev):

    -5.9159   8.8119   9.2303   9.2303  15.5623  16.5782  16.6272  16.6272

          k = 0.0190 0.0190 0.0190 (   872 PWs)   bands (ev):

    -5.8676   8.5666   9.1973   9.1973  15.6182  16.6510  16.6863  16.6863

          k = 0.0228 0.0228 0.0228 (   869 PWs)   bands (ev):

    -5.8087   8.2858   9.1586   9.1586  15.6469  16.7531  16.7531  16.7646

          k = 0.0266 0.0266 0.0266 (   869 PWs)   bands (ev):

    -5.7393   7.9764   9.1149   9.1149  15.6453  16.8244  16.8244  16.9174

          k = 0.0305 0.0305 0.0305 (   857 PWs)   bands (ev):

    -5.6594   7.6443   9.0671   9.0671  15.6181  16.8966  16.8966  17.1005

          k = 0.0343 0.0343 0.0343 (   857 PWs)   bands (ev):

    -5.5691   7.2946   9.0162   9.0162  15.5722  16.9657  16.9657  17.3031

          k = 0.0381 0.0381 0.0381 (   854 PWs)   bands (ev):

    -5.4687   6.9316   8.9628   8.9628  15.5141  17.0276  17.0276  17.5159

          k = 0.0419 0.0419 0.0419 (   866 PWs)   bands (ev):

    -5.3582   6.5589   8.9079   8.9079  15.4483  17.0784  17.0784  17.7314

          k = 0.0457 0.0457 0.0457 (   854 PWs)   bands (ev):

    -5.2378   6.1795   8.8522   8.8522  15.3784  17.1148  17.1148  17.9439

          k = 0.0495 0.0495 0.0495 (   854 PWs)   bands (ev):

    -5.1077   5.7959   8.7965   8.7965  15.3067  17.1346  17.1346  18.1484

          k = 0.0533 0.0533 0.0533 (   854 PWs)   bands (ev):

    -4.9683   5.4104   8.7413   8.7413  15.2351  17.1368  17.1368  18.3407

          k = 0.0571 0.0571 0.0571 (   851 PWs)   bands (ev):

    -4.8199   5.0249   8.6872   8.6872  15.1648  17.1221  17.1221  18.5175

          k = 0.0609 0.0609 0.0609 (   851 PWs)   bands (ev):

    -4.6628   4.6414   8.6348   8.6348  15.0968  17.0920  17.0920  18.6761

          k = 0.0647 0.0647 0.0647 (   845 PWs)   bands (ev):

    -4.4976   4.2615   8.5845   8.5845  15.0320  17.0492  17.0492  18.8144

          k = 0.0685 0.0685 0.0685 (   848 PWs)   bands (ev):

    -4.3249   3.8867   8.5367   8.5367  14.9708  16.9966  16.9966  18.9316

          k = 0.0723 0.0723 0.0723 (   848 PWs)   bands (ev):

    -4.1455   3.5189   8.4917   8.4917  14.9138  16.9375  16.9375  19.0274

          k = 0.0761 0.0761 0.0761 (   854 PWs)   bands (ev):

    -3.9604   3.1596   8.4499   8.4499  14.8613  16.8747  16.8747  19.1031

          k = 0.0799 0.0799 0.0799 (   848 PWs)   bands (ev):

    -3.7710   2.8110   8.4114   8.4114  14.8134  16.8110  16.8110  19.1604

          k = 0.0838 0.0838 0.0838 (   848 PWs)   bands (ev):

    -3.5790   2.4753   8.3765   8.3765  14.7704  16.7487  16.7487  19.2017

          k = 0.0876 0.0876 0.0876 (   847 PWs)   bands (ev):

    -3.3869   2.1554   8.3454   8.3454  14.7323  16.6898  16.6898  19.2299

          k = 0.0914 0.0914 0.0914 (   847 PWs)   bands (ev):

    -3.1979   1.8549   8.3182   8.3182  14.6992  16.6358  16.6358  19.2479

          k = 0.0952 0.0952 0.0952 (   847 PWs)   bands (ev):

    -3.0163   1.5785   8.2949   8.2949  14.6712  16.5882  16.5882  19.2582

          k = 0.0990 0.0990 0.0990 (   847 PWs)   bands (ev):

    -2.8483   1.3325   8.2758   8.2758  14.6483  16.5479  16.5479  19.2632

          k = 0.1028 0.1028 0.1028 (   847 PWs)   bands (ev):

    -2.7014   1.1249   8.2609   8.2609  14.6305  16.5157  16.5157  19.2651

          k = 0.1066 0.1066 0.1066 (   847 PWs)   bands (ev):

    -2.5854   0.9652   8.2502   8.2502  14.6178  16.4924  16.4924  19.2653

          k = 0.1104 0.1104 0.1104 (   847 PWs)   bands (ev):

    -2.5101   0.8639   8.2437   8.2437  14.6101  16.4782  16.4782  19.2650

          k = 0.1142 0.1142 0.1142 (   832 PWs)   bands (ev):

    -2.4840   0.8290   8.2416   8.2416  14.6076  16.4735  16.4735  19.2648

     Writing output data file pwscf.save

     init_run     :      0.43s CPU      0.45s WALL (       1 calls)
     electrons    :      6.16s CPU      6.23s WALL (       1 calls)

     Called by init_run:
     wfcinit      :      0.00s CPU      0.00s WALL (       1 calls)
     potinit      :      0.07s CPU      0.08s WALL (       1 calls)

     Called by electrons:
     c_bands      :      6.16s CPU      6.23s WALL (       1 calls)
     v_of_rho     :      0.06s CPU      0.07s WALL (       1 calls)
     newd         :      0.02s CPU      0.03s WALL (       1 calls)

     Called by c_bands:
     init_us_2    :      0.02s CPU      0.02s WALL (      61 calls)
     cegterg      :      5.69s CPU      5.74s WALL (      63 calls)

     Called by sum_band:

     Called by *egterg:
     h_psi        :      4.73s CPU      4.78s WALL (    1043 calls)
     s_psi        :      0.16s CPU      0.16s WALL (    1043 calls)
     g_psi        :      0.03s CPU      0.03s WALL (     919 calls)
     cdiaghg      :      0.16s CPU      0.16s WALL (     980 calls)

     Called by h_psi:
     h_psi:pot    :      4.71s CPU      4.76s WALL (    1043 calls)
     h_psi:calbec :      0.17s CPU      0.17s WALL (    1043 calls)
     vloc_psi     :      4.39s CPU      4.43s WALL (    1043 calls)
     add_vuspsi   :      0.16s CPU      0.16s WALL (    1043 calls)

     General routines
     calbec       :      0.17s CPU      0.17s WALL (    1043 calls)
     fft          :      0.03s CPU      0.03s WALL (      13 calls)
     ffts         :      0.00s CPU      0.00s WALL (       1 calls)
     fftw         :      3.68s CPU      3.69s WALL (   12668 calls)
     interpolate  :      0.00s CPU      0.00s WALL (       1 calls)
     davcio       :      0.00s CPU      0.00s WALL (      61 calls)


     PWSCF        :     6.93s CPU         7.04s WALL


   This run was terminated on:  23:54:59   2Apr2019            

=------------------------------------------------------------------------------=
   JOB DONE.
=------------------------------------------------------------------------------=
