
     Program PWSCF v.6.1 (svn rev. 13369) starts on  2Apr2019 at 14:39:39 

     This program is part of the open-source Quantum ESPRESSO suite
     for quantum simulation of materials; please cite
         "P. Giannozzi et al., J. Phys.:Condens. Matter 21 395502 (2009);
          URL http://www.quantum-espresso.org", 
     in publications or presentations arising from this work. More details at
     http://www.quantum-espresso.org/quote

     Serial version
     Waiting for input...
     Reading input from standard input

     Current dimensions of program PWSCF are:
     Max number of different atomic species (ntypx) = 10
     Max number of k-points (npk) =  40000
     Max angular momentum in pseudopotentials (lmaxx) =  3

     G-vector sticks info
     --------------------
     sticks:   dense  smooth     PW     G-vecs:    dense   smooth      PW
     Sum        1159     463    151                26229     6615    1243



     bravais-lattice index     =            0
     lattice parameter (alat)  =       1.8897  a.u.
     unit-cell volume          =     138.6773 (a.u.)^3
     number of atoms/cell      =            2
     number of atomic types    =            2
     number of electrons       =         8.00
     number of Kohn-Sham states=            8
     kinetic-energy cutoff     =      50.0000  Ry
     charge density cutoff     =     500.0000  Ry
     convergence threshold     =      1.0E-09
     mixing beta               =       0.8000
     number of iterations used =            8  plain     mixing
     Exchange-correlation      = PBE ( 1  4  3  4 0 0)
     nstep                     =           50


     celldm(1)=   1.889726  celldm(2)=   0.000000  celldm(3)=   0.000000
     celldm(4)=   0.000000  celldm(5)=   0.000000  celldm(6)=   0.000000

     crystal axes: (cart. coord. in units of alat)
               a(1) = (   2.174000   2.174000   0.000000 )  
               a(2) = (   0.000000   2.174000   2.174000 )  
               a(3) = (   2.174000   0.000000   2.174000 )  

     reciprocal axes: (cart. coord. in units 2 pi/alat)
               b(1) = (  0.229991  0.229991 -0.229991 )  
               b(2) = ( -0.229991  0.229991  0.229991 )  
               b(3) = (  0.229991 -0.229991  0.229991 )  


     PseudoPot. # 1 for Si read from file:
     ./Si.UPF
     MD5 check sum: c1dbf6addbc430d555b7ee244f9ddb0e
     Pseudo is Ultrasoft + core correction, Zval =  4.0
     Generated using "atomic" code by A. Dal Corso  v.5.4.0
     Using radial grid of 1141 points,  4 beta functions with: 
                l(1) =   0
                l(2) =   0
                l(3) =   1
                l(4) =   1
     Q(r) pseudized with 0 coefficients 


     PseudoPot. # 2 for  C read from file:
     ./C.UPF
     MD5 check sum: ab2a259a8df52b5ef32245f590d8fbaf
     Pseudo is Ultrasoft + core correction, Zval =  4.0
     Generated using "atomic" code by A. Dal Corso  v.5.4.0
     Using radial grid of 1073 points,  4 beta functions with: 
                l(1) =   0
                l(2) =   0
                l(3) =   1
                l(4) =   1
     Q(r) pseudized with 0 coefficients 


     atomic species   valence    mass     pseudopotential
        Si             4.00     1.00000     Si( 1.00)
        C              4.00     1.00000      C( 1.00)

     24 Sym. Ops. (no inversion) found



   Cartesian axes

     site n.     atom                  positions (alat units)
         1           Si  tau(   1) = (   0.0000000   0.0000000   0.0000000  )
         2           C   tau(   2) = (   1.0870000   1.0870000   1.0870000  )

     number of k points=    29  gaussian smearing, width (Ry)=  0.0000
                       cart. coord. in units 2pi/alat
        k(    1) = (   0.0000000   0.0000000   0.0000000), wk =   0.0039062
        k(    2) = (   0.0287489  -0.0287489   0.0287489), wk =   0.0312500
        k(    3) = (   0.0574977  -0.0574977   0.0574977), wk =   0.0312500
        k(    4) = (   0.0862466  -0.0862466   0.0862466), wk =   0.0312500
        k(    5) = (  -0.1149954   0.1149954  -0.1149954), wk =   0.0156250
        k(    6) = (   0.0000000   0.0000000   0.0574977), wk =   0.0234375
        k(    7) = (   0.0287489  -0.0287489   0.0862466), wk =   0.0937500
        k(    8) = (   0.0574977  -0.0574977   0.1149954), wk =   0.0937500
        k(    9) = (  -0.1437443   0.1437443  -0.0862466), wk =   0.0937500
        k(   10) = (  -0.1149954   0.1149954  -0.0574977), wk =   0.0937500
        k(   11) = (  -0.0862466   0.0862466  -0.0287489), wk =   0.0937500
        k(   12) = (  -0.0574977   0.0574977   0.0000000), wk =   0.0468750
        k(   13) = (   0.0000000   0.0000000   0.1149954), wk =   0.0234375
        k(   14) = (   0.0287489  -0.0287489   0.1437443), wk =   0.0937500
        k(   15) = (  -0.1724931   0.1724931  -0.0574977), wk =   0.0937500
        k(   16) = (  -0.1437443   0.1437443  -0.0287489), wk =   0.0937500
        k(   17) = (  -0.1149954   0.1149954   0.0000000), wk =   0.0468750
        k(   18) = (   0.0000000   0.0000000   0.1724931), wk =   0.0234375
        k(   19) = (  -0.2012420   0.2012420  -0.0287489), wk =   0.0937500
        k(   20) = (  -0.1724931   0.1724931   0.0000000), wk =   0.0468750
        k(   21) = (   0.0000000   0.0000000  -0.2299908), wk =   0.0117188
        k(   22) = (   0.0574977   0.0000000   0.1149954), wk =   0.0937500
        k(   23) = (  -0.1437443   0.2012420  -0.0862466), wk =   0.1875000
        k(   24) = (  -0.1149954   0.1724931  -0.0574977), wk =   0.0937500
        k(   25) = (  -0.1724931   0.2299908  -0.0574977), wk =   0.0937500
        k(   26) = (  -0.1437443   0.2012420  -0.0287489), wk =   0.1875000
        k(   27) = (  -0.1149954   0.1724931   0.0000000), wk =   0.0937500
        k(   28) = (   0.0574977   0.0000000  -0.2299908), wk =   0.0468750
        k(   29) = (   0.1149954   0.0000000  -0.2299908), wk =   0.0234375

     Dense  grid:    26229 G-vectors     FFT dimensions: (  45,  45,  45)

     Smooth grid:     6615 G-vectors     FFT dimensions: (  27,  27,  27)

     Estimated max dynamical RAM per process >      21.09MB

     Initial potential from superposition of free atoms

     starting charge    7.99940, renormalised to    8.00000
     Starting wfc are    8 randomized atomic wfcs

     total cpu time spent up to now is        3.8 secs

     per-process dynamical memory:    31.8 Mb

     Self-consistent Calculation

     iteration #  1     ecut=    50.00 Ry     beta=0.80
     Davidson diagonalization with overlap
     ethr =  1.00E-02,  avg # of iterations =  3.4

     total cpu time spent up to now is        4.8 secs

     total energy              =     -22.50715181 Ry
     Harris-Foulkes estimate   =     -22.81312366 Ry
     estimated scf accuracy    <       0.44008178 Ry

     iteration #  2     ecut=    50.00 Ry     beta=0.80
     Davidson diagonalization with overlap
     ethr =  5.50E-03,  avg # of iterations =  2.1

     total cpu time spent up to now is        5.6 secs

     total energy              =     -22.61584278 Ry
     Harris-Foulkes estimate   =     -22.78453077 Ry
     estimated scf accuracy    <       0.31976635 Ry

     iteration #  3     ecut=    50.00 Ry     beta=0.80
     Davidson diagonalization with overlap
     ethr =  4.00E-03,  avg # of iterations =  1.9

     total cpu time spent up to now is        6.3 secs

     total energy              =     -22.67715099 Ry
     Harris-Foulkes estimate   =     -22.67715109 Ry
     estimated scf accuracy    <       0.00066691 Ry

     iteration #  4     ecut=    50.00 Ry     beta=0.80
     Davidson diagonalization with overlap
     ethr =  8.34E-06,  avg # of iterations =  3.6

     total cpu time spent up to now is        7.3 secs

     total energy              =     -22.67774488 Ry
     Harris-Foulkes estimate   =     -22.67779498 Ry
     estimated scf accuracy    <       0.00009100 Ry

     iteration #  5     ecut=    50.00 Ry     beta=0.80
     Davidson diagonalization with overlap
     ethr =  1.14E-06,  avg # of iterations =  2.1

     total cpu time spent up to now is        8.1 secs

     total energy              =     -22.67776463 Ry
     Harris-Foulkes estimate   =     -22.67776485 Ry
     estimated scf accuracy    <       0.00000155 Ry

     iteration #  6     ecut=    50.00 Ry     beta=0.80
     Davidson diagonalization with overlap
     ethr =  1.94E-08,  avg # of iterations =  2.0

     total cpu time spent up to now is        8.9 secs

     total energy              =     -22.67776498 Ry
     Harris-Foulkes estimate   =     -22.67776499 Ry
     estimated scf accuracy    <       0.00000002 Ry

     iteration #  7     ecut=    50.00 Ry     beta=0.80
     Davidson diagonalization with overlap
     ethr =  2.55E-10,  avg # of iterations =  2.1

     total cpu time spent up to now is        9.6 secs

     total energy              =     -22.67776498 Ry
     Harris-Foulkes estimate   =     -22.67776499 Ry
     estimated scf accuracy    <          6.8E-09 Ry

     iteration #  8     ecut=    50.00 Ry     beta=0.80
     Davidson diagonalization with overlap
     ethr =  8.53E-11,  avg # of iterations =  1.9

     total cpu time spent up to now is       10.4 secs

     End of self-consistent calculation

          k = 0.0000 0.0000 0.0000 (   869 PWs)   bands (ev):

    -5.9065   9.5482   9.5482   9.5482  15.8595  16.9100  16.9100  16.9100

          k = 0.0287-0.0287 0.0287 (   845 PWs)   bands (ev):

    -5.6003   8.0632   9.3467   9.3467  16.0878  17.2620  17.2620  17.4423

          k = 0.0575-0.0575 0.0575 (   827 PWs)   bands (ev):

    -4.7044   5.2450   8.9406   8.9406  15.6022  17.5064  17.5064  18.9546

          k = 0.0862-0.0862 0.0862 (   832 PWs)   bands (ev):

    -3.3407   2.4916   8.6123   8.6123  15.1902  17.0699  17.0699  19.6079

          k =-0.1150 0.1150-0.1150 (   832 PWs)   bands (ev):

    -2.3127   0.9725   8.4929   8.4929  15.0488  16.8131  16.8131  19.6348

          k = 0.0000 0.0000 0.0575 (   841 PWs)   bands (ev):

    -5.4981   8.4375   8.8485   8.8485  15.7775  16.8438  17.9698  17.9698

          k = 0.0287-0.0287 0.0862 (   838 PWs)   bands (ev):

    -4.7974   6.2327   8.3032   8.5584  15.2964  17.2279  18.2825  18.6855

          k = 0.0575-0.0575 0.1150 (   833 PWs)   bands (ev):

    -3.5728   3.5182   7.9590   8.0074  14.9813  17.1997  18.3977  19.0532

          k =-0.1437 0.1437-0.0862 (   825 PWs)   bands (ev):

    -2.2415   1.4266   7.3982   8.0587  14.9496  16.8214  17.7819  20.4201

          k =-0.1150 0.1150-0.0575 (   828 PWs)   bands (ev):

    -2.6250   1.9699   7.1227   8.4259  15.4089  16.7941  17.5154  20.3928

          k =-0.0862 0.0862-0.0287 (   831 PWs)   bands (ev):

    -4.0315   4.4054   7.2633   8.9661  16.1321  17.1832  17.5947  19.1638

          k =-0.0575 0.0575 0.0000 (   837 PWs)   bands (ev):

    -5.0966   6.8521   8.0472   9.3916  16.6780  16.9117  17.3706  18.4351

          k = 0.0000 0.0000 0.1150 (   833 PWs)   bands (ev):

    -4.3004   6.2060   7.6067   7.6067  13.6314  15.9288  20.1937  20.1937

          k = 0.0287-0.0287 0.1437 (   829 PWs)   bands (ev):

    -3.2630   4.4141   6.7343   7.2085  13.1525  15.9052  20.2019  20.6613

          k =-0.1725 0.1725-0.0575 (   822 PWs)   bands (ev):

    -1.9310   2.4650   5.5784   7.2302  13.2937  17.5634  20.0926  20.1175

          k =-0.1437 0.1437-0.0287 (   828 PWs)   bands (ev):

    -1.6209   2.0978   4.8740   7.6614  13.9304  18.5713  19.4097  20.7601

          k =-0.1150 0.1150 0.0000 (   837 PWs)   bands (ev):

    -2.8639   3.5936   5.1907   8.3619  15.1051  18.3688  18.6338  19.4729

          k = 0.0000 0.0000 0.1725 (   817 PWs)   bands (ev):

    -2.4408   3.6072   6.6772   6.6772  11.6437  14.4020  22.4762  22.4762

          k =-0.2012 0.2012-0.0287 (   819 PWs)   bands (ev):

    -1.3227   2.4303   5.4607   6.5811  11.8210  15.0022  22.5338  22.5756

          k =-0.1725 0.1725 0.0000 (   824 PWs)   bands (ev):

    -0.8529   2.2606   3.9724   6.9415  12.6697  17.3615  21.4530  22.0759

          k = 0.0000 0.0000-0.2300 (   806 PWs)   bands (ev):

    -0.8543   1.7297   6.3460   6.3460  10.9077  13.9047  23.6460  23.6460

          k = 0.0575 0.0000 0.1150 (   838 PWs)   bands (ev):

    -3.9257   5.0573   6.6781   8.2711  14.9434  17.2275  18.0741  19.6769

          k =-0.1437 0.2012-0.0862 (   826 PWs)   bands (ev):

    -2.6155   3.0157   5.9389   7.6181  14.8759  17.1961  18.8038  20.0559

          k =-0.1150 0.1725-0.0575 (   824 PWs)   bands (ev):

    -1.6606   1.6880   5.8286   7.2789  14.8169  16.8783  19.7538  20.6052

          k =-0.1725 0.2300-0.0575 (   814 PWs)   bands (ev):

    -2.1451   3.3557   5.6941   6.4125  13.2078  16.0205  19.8866  22.3589

          k =-0.1437 0.2012-0.0287 (   826 PWs)   bands (ev):

    -1.0648   2.3987   4.5286   6.1354  13.9002  17.6887  19.4389  21.8035

          k =-0.1150 0.1725 0.0000 (   825 PWs)   bands (ev):

    -1.4224   2.7018   4.2609   6.7053  14.5973  17.9725  19.4026  21.0780

          k = 0.0575 0.0000-0.2300 (   818 PWs)   bands (ev):

    -0.7424   2.0412   5.4593   5.4816  12.6148  15.5984  21.5622  22.9367

          k = 0.1150 0.0000-0.2300 (   848 PWs)   bands (ev):

    -0.6191   2.5167   4.5282   4.8332  14.7698  19.0528  19.0792  19.3610

     the Fermi energy is    10.7168 ev

!    total energy              =     -22.67776498 Ry
     Harris-Foulkes estimate   =     -22.67776498 Ry
     estimated scf accuracy    <          1.7E-11 Ry

     The total energy is the sum of the following terms:

     one-electron contribution =       5.72418347 Ry
     hartree contribution      =       2.33261546 Ry
     xc contribution           =      -9.75520235 Ry
     ewald contribution        =     -20.97936156 Ry
     smearing contrib. (-TS)   =      -0.00000000 Ry

     convergence has been achieved in   8 iterations

     Forces acting on atoms (cartesian axes, Ry/au):

     atom    1 type  1   force =     0.00000000    0.00000000    0.00000000
     atom    2 type  2   force =     0.00000000    0.00000000    0.00000000

     Total force =     0.000000     Total SCF correction =     0.000000


     Computing stress (Cartesian axis) and pressure

          total   stress  (Ry/bohr**3)                   (kbar)     P=   45.33
   0.00030812   0.00000000   0.00000000         45.33      0.00      0.00
   0.00000000   0.00030812   0.00000000          0.00     45.33      0.00
   0.00000000   0.00000000   0.00030812          0.00      0.00     45.33


     BFGS Geometry Optimization

     number of scf cycles    =   1
     number of bfgs steps    =   0

     enthalpy new            =     -22.6777649834 Ry

     new trust radius        =       0.0181422819 bohr
     new conv_thr            =       0.0000000010 Ry

     new unit-cell volume =    141.90669 a.u.^3 (    21.02840 Ang^3 )
     density =      0.15793 g/cm^3

CELL_PARAMETERS (alat=  1.88972613)
   2.190746299   2.190746299   0.000000000
   0.000000000   2.190746299   2.190746299
   2.190746299   0.000000000   2.190746299

ATOMIC_POSITIONS (crystal)
Si       0.000000000   0.000000000   0.000000000
C        0.250000000   0.250000000   0.250000000



     Writing output data file pwscf.save
     NEW-OLD atomic charge density approx. for the potential
     extrapolated charge    8.18205, renormalised to    8.00000

     total cpu time spent up to now is       22.2 secs

     per-process dynamical memory:    38.5 Mb

     Self-consistent Calculation

     iteration #  1     ecut=    50.00 Ry     beta=0.80
     Davidson diagonalization with overlap
     ethr =  1.00E-06,  avg # of iterations =  3.4

     total cpu time spent up to now is       23.4 secs

     total energy              =     -22.67518766 Ry
     Harris-Foulkes estimate   =     -22.75885148 Ry
     estimated scf accuracy    <       0.00209784 Ry

     iteration #  2     ecut=    50.00 Ry     beta=0.80
     Davidson diagonalization with overlap
     ethr =  2.62E-05,  avg # of iterations =  2.9

     total cpu time spent up to now is       24.3 secs

     total energy              =     -22.67790980 Ry
     Harris-Foulkes estimate   =     -22.68084616 Ry
     estimated scf accuracy    <       0.00822487 Ry

     iteration #  3     ecut=    50.00 Ry     beta=0.80
     Davidson diagonalization with overlap
     ethr =  2.62E-05,  avg # of iterations =  2.0

     total cpu time spent up to now is       25.1 secs

     total energy              =     -22.67821508 Ry
     Harris-Foulkes estimate   =     -22.67854006 Ry
     estimated scf accuracy    <       0.00110392 Ry

     iteration #  4     ecut=    50.00 Ry     beta=0.80
     Davidson diagonalization with overlap
     ethr =  1.38E-05,  avg # of iterations =  1.0

     total cpu time spent up to now is       25.8 secs

     total energy              =     -22.67813249 Ry
     Harris-Foulkes estimate   =     -22.67827161 Ry
     estimated scf accuracy    <       0.00026773 Ry

     iteration #  5     ecut=    50.00 Ry     beta=0.80
     Davidson diagonalization with overlap
     ethr =  3.35E-06,  avg # of iterations =  2.2

     total cpu time spent up to now is       26.5 secs

     total energy              =     -22.67819266 Ry
     Harris-Foulkes estimate   =     -22.67819315 Ry
     estimated scf accuracy    <       0.00000123 Ry

     iteration #  6     ecut=    50.00 Ry     beta=0.80
     Davidson diagonalization with overlap
     ethr =  1.54E-08,  avg # of iterations =  2.2

     total cpu time spent up to now is       27.3 secs

     total energy              =     -22.67819316 Ry
     Harris-Foulkes estimate   =     -22.67819323 Ry
     estimated scf accuracy    <       0.00000013 Ry

     iteration #  7     ecut=    50.00 Ry     beta=0.80
     Davidson diagonalization with overlap
     ethr =  1.60E-09,  avg # of iterations =  2.0

     total cpu time spent up to now is       28.1 secs

     total energy              =     -22.67819319 Ry
     Harris-Foulkes estimate   =     -22.67819320 Ry
     estimated scf accuracy    <       0.00000001 Ry

     iteration #  8     ecut=    50.00 Ry     beta=0.80
     Davidson diagonalization with overlap
     ethr =  1.69E-10,  avg # of iterations =  2.0

     total cpu time spent up to now is       28.9 secs

     total energy              =     -22.67819319 Ry
     Harris-Foulkes estimate   =     -22.67819320 Ry
     estimated scf accuracy    <       0.00000002 Ry

     iteration #  9     ecut=    50.00 Ry     beta=0.80
     Davidson diagonalization with overlap
     ethr =  1.69E-10,  avg # of iterations =  1.2

     total cpu time spent up to now is       29.5 secs

     End of self-consistent calculation

          k = 0.0000 0.0000 0.0000 (   869 PWs)   bands (ev):

    -6.0136   9.2606   9.2606   9.2606  15.3030  16.4634  16.4634  16.4634

          k = 0.0285-0.0285 0.0285 (   845 PWs)   bands (ev):

    -5.7129   7.7820   9.0601   9.0601  15.5784  16.8113  16.8113  16.9524

          k = 0.0571-0.0571 0.0571 (   827 PWs)   bands (ev):

    -4.8340   4.9979   8.6561   8.6561  15.1108  17.0748  17.0748  18.4637

          k = 0.0856-0.0856 0.0856 (   832 PWs)   bands (ev):

    -3.5002   2.2913   8.3296   8.3296  14.6966  16.6755  16.6755  19.1691

          k =-0.1141 0.1141-0.1141 (   832 PWs)   bands (ev):

    -2.5050   0.8113   8.2108   8.2108  14.5533  16.4316  16.4316  19.2192

          k = 0.0000 0.0000 0.0571 (   841 PWs)   bands (ev):

    -5.6125   8.1400   8.5701   8.5701  15.3528  16.3031  17.5068  17.5068

          k = 0.0285-0.0285 0.0856 (   838 PWs)   bands (ev):

    -4.9250   5.9654   8.0313   8.2721  14.8896  16.7178  17.8600  18.2214

          k = 0.0571-0.0571 0.1141 (   833 PWs)   bands (ev):

    -3.7256   3.2952   7.6765   7.7374  14.5902  16.7389  17.9690  18.5888

          k =-0.1426 0.1426-0.0856 (   825 PWs)   bands (ev):

    -2.4316   1.2515   7.1241   7.7854  14.5604  16.3720  17.3797  19.9382

          k =-0.1141 0.1141-0.0571 (   828 PWs)   bands (ev):

    -2.8023   1.7799   6.8560   8.1455  14.9944  16.3587  17.1169  19.9056

          k =-0.0856 0.0856-0.0285 (   831 PWs)   bands (ev):

    -4.1744   4.1670   6.9999   8.6779  15.6751  16.7509  17.1704  18.6792

          k =-0.0571 0.0571 0.0000 (   837 PWs)   bands (ev):

    -5.2186   6.5772   7.7787   9.1004  16.2270  16.3960  16.9210  17.9774

          k = 0.0000 0.0000 0.1141 (   833 PWs)   bands (ev):

    -4.4371   5.9148   7.3457   7.3457  13.2733  15.5351  19.6957  19.6957

          k = 0.0285-0.0285 0.1426 (   829 PWs)   bands (ev):

    -3.4205   4.1538   6.4807   6.9527  12.8271  15.5105  19.6813  20.1747

          k =-0.1712 0.1712-0.0571 (   822 PWs)   bands (ev):

    -2.1217   2.2508   5.3407   6.9723  12.9720  17.1348  19.5910  19.6388

          k =-0.1426 0.1426-0.0285 (   828 PWs)   bands (ev):

    -1.8234   1.8977   4.6500   7.3950  13.5943  18.0974  18.9722  20.2376

          k =-0.1141 0.1141 0.0000 (   837 PWs)   bands (ev):

    -3.0320   3.3555   4.9677   8.0830  14.7391  17.8901  18.1983  18.9635

          k = 0.0000 0.0000 0.1712 (   817 PWs)   bands (ev):

    -2.6146   3.3490   6.4299   6.4299  11.3556  14.0315  21.9418  21.9418

          k =-0.1997 0.1997-0.0285 (   819 PWs)   bands (ev):

    -1.5245   2.1945   5.2421   6.3346  11.5333  14.6171  21.9829  22.0544

          k =-0.1712 0.1712 0.0000 (   824 PWs)   bands (ev):

    -1.0740   2.0253   3.7963   6.6882  12.3622  16.9386  20.9656  21.5379

          k = 0.0000 0.0000-0.2282 (   806 PWs)   bands (ev):

    -1.0697   1.5149   6.1035   6.1035  10.6406  13.5367  23.0907  23.0907

          k = 0.0571 0.0000 0.1141 (   838 PWs)   bands (ev):

    -4.0703   4.7959   6.4295   7.9928  14.5765  16.7752  17.6190  19.1960

          k =-0.1426 0.1997-0.0856 (   826 PWs)   bands (ev):

    -2.7894   2.7945   5.6926   7.3541  14.5323  16.7441  18.3324  19.5859

          k =-0.1141 0.1712-0.0571 (   824 PWs)   bands (ev):

    -1.8646   1.5038   5.5780   7.0240  14.4798  16.4292  19.2730  20.1226

          k =-0.1712 0.2282-0.0571 (   814 PWs)   bands (ev):

    -2.3272   3.1030   5.4635   6.1776  12.8955  15.6163  19.3920  21.8339

          k =-0.1426 0.1997-0.0285 (   826 PWs)   bands (ev):

    -1.2789   2.1683   4.3262   5.9051  13.5796  17.2525  18.9577  21.3089

          k =-0.1141 0.1712 0.0000 (   825 PWs)   bands (ev):

    -1.6270   2.4655   4.0656   6.4615  14.2679  17.5194  18.9016  20.6375

          k = 0.0571-0.0000-0.2282 (   818 PWs)   bands (ev):

    -0.9630   1.8141   5.2399   5.2646  12.3158  15.1987  21.0542  22.3855

          k = 0.1141-0.0000-0.2282 (   848 PWs)   bands (ev):

    -0.8459   2.2617   4.3450   4.6343  14.4497  18.5414  18.5772  18.9700

     the Fermi energy is    10.3576 ev

!    total energy              =     -22.67819319 Ry
     Harris-Foulkes estimate   =     -22.67819319 Ry
     estimated scf accuracy    <          4.7E-10 Ry

     The total energy is the sum of the following terms:

     one-electron contribution =       5.51101505 Ry
     hartree contribution      =       2.34947976 Ry
     xc contribution           =      -9.71969493 Ry
     ewald contribution        =     -20.81899308 Ry
     smearing contrib. (-TS)   =      -0.00000000 Ry

     convergence has been achieved in   9 iterations

     Forces acting on atoms (cartesian axes, Ry/au):

     atom    1 type  1   force =     0.00000000   -0.00000000   -0.00000000
     atom    2 type  2   force =    -0.00000000    0.00000000    0.00000000

     Total force =     0.000000     Total SCF correction =     0.000000


     Computing stress (Cartesian axis) and pressure

          total   stress  (Ry/bohr**3)                   (kbar)     P=   -5.39
  -0.00003662  -0.00000000  -0.00000000         -5.39     -0.00     -0.00
   0.00000000  -0.00003662  -0.00000000          0.00     -5.39     -0.00
  -0.00000000  -0.00000000  -0.00003662         -0.00     -0.00     -5.39


     number of scf cycles    =   2
     number of bfgs steps    =   1

     enthalpy old            =     -22.6777649834 Ry
     enthalpy new            =     -22.6781931925 Ry

     CASE: enthalpy_new < enthalpy_old

     new trust radius        =       0.0019612696 bohr
     new conv_thr            =            1.0E-11 Ry

     new unit-cell volume =    141.55652 a.u.^3 (    20.97651 Ang^3 )
     density =      0.15832 g/cm^3

CELL_PARAMETERS (alat=  1.88972613)
   2.188942875   2.188942875   0.000000000
   0.000000000   2.188942875   2.188942875
   2.188942875   0.000000000   2.188942875

ATOMIC_POSITIONS (crystal)
Si       0.000000000  -0.000000000   0.000000000
C        0.250000000   0.250000000   0.250000000



     Writing output data file pwscf.save
     NEW-OLD atomic charge density approx. for the potential
     extrapolated charge    7.98021, renormalised to    8.00000

     total cpu time spent up to now is       41.7 secs

     per-process dynamical memory:    38.8 Mb

     Self-consistent Calculation

     iteration #  1     ecut=    50.00 Ry     beta=0.80
     Davidson diagonalization with overlap
     ethr =  1.00E-06,  avg # of iterations =  2.0

     total cpu time spent up to now is       42.6 secs

     total energy              =     -22.67816391 Ry
     Harris-Foulkes estimate   =     -22.66951759 Ry
     estimated scf accuracy    <       0.00002542 Ry

     iteration #  2     ecut=    50.00 Ry     beta=0.80
     Davidson diagonalization with overlap
     ethr =  3.18E-07,  avg # of iterations =  2.5

     total cpu time spent up to now is       43.4 secs

     total energy              =     -22.67819634 Ry
     Harris-Foulkes estimate   =     -22.67823114 Ry
     estimated scf accuracy    <       0.00009669 Ry

     iteration #  3     ecut=    50.00 Ry     beta=0.80
     Davidson diagonalization with overlap
     ethr =  3.18E-07,  avg # of iterations =  2.0

     total cpu time spent up to now is       44.1 secs

     total energy              =     -22.67819964 Ry
     Harris-Foulkes estimate   =     -22.67820380 Ry
     estimated scf accuracy    <       0.00001292 Ry

     iteration #  4     ecut=    50.00 Ry     beta=0.80
     Davidson diagonalization with overlap
     ethr =  1.62E-07,  avg # of iterations =  1.0

     total cpu time spent up to now is       44.8 secs

     total energy              =     -22.67819912 Ry
     Harris-Foulkes estimate   =     -22.67820047 Ry
     estimated scf accuracy    <       0.00000245 Ry

     iteration #  5     ecut=    50.00 Ry     beta=0.80
     Davidson diagonalization with overlap
     ethr =  3.07E-08,  avg # of iterations =  2.0

     total cpu time spent up to now is       45.6 secs

     total energy              =     -22.67819976 Ry
     Harris-Foulkes estimate   =     -22.67819978 Ry
     estimated scf accuracy    <       0.00000006 Ry

     iteration #  6     ecut=    50.00 Ry     beta=0.80
     Davidson diagonalization with overlap
     ethr =  6.88E-10,  avg # of iterations =  1.9

     total cpu time spent up to now is       46.3 secs

     total energy              =     -22.67819977 Ry
     Harris-Foulkes estimate   =     -22.67819977 Ry
     estimated scf accuracy    <          7.8E-09 Ry

     iteration #  7     ecut=    50.00 Ry     beta=0.80
     Davidson diagonalization with overlap
     ethr =  9.76E-11,  avg # of iterations =  1.3

     total cpu time spent up to now is       47.0 secs

     total energy              =     -22.67819977 Ry
     Harris-Foulkes estimate   =     -22.67819977 Ry
     estimated scf accuracy    <          1.1E-09 Ry

     iteration #  8     ecut=    50.00 Ry     beta=0.80
     Davidson diagonalization with overlap
     ethr =  1.38E-11,  avg # of iterations =  2.0

     total cpu time spent up to now is       47.7 secs

     total energy              =     -22.67819977 Ry
     Harris-Foulkes estimate   =     -22.67819977 Ry
     estimated scf accuracy    <          9.3E-11 Ry

     iteration #  9     ecut=    50.00 Ry     beta=0.80
     Davidson diagonalization with overlap
     ethr =  1.16E-12,  avg # of iterations =  1.4

     total cpu time spent up to now is       48.4 secs

     End of self-consistent calculation

          k = 0.0000 0.0000 0.0000 (   869 PWs)   bands (ev):

    -6.0022   9.2912   9.2912   9.2912  15.3624  16.5109  16.5109  16.5109

          k = 0.0286-0.0286 0.0286 (   845 PWs)   bands (ev):

    -5.7009   7.8120   9.0906   9.0906  15.6329  16.8593  16.8593  17.0044

          k = 0.0571-0.0571 0.0571 (   827 PWs)   bands (ev):

    -4.8203   5.0242   8.6863   8.6863  15.1633  17.1207  17.1207  18.5160

          k = 0.0857-0.0857 0.0857 (   832 PWs)   bands (ev):

    -3.4833   2.3126   8.3596   8.3596  14.7492  16.7175  16.7175  19.2159

          k =-0.1142 0.1142-0.1142 (   832 PWs)   bands (ev):

    -2.4846   0.8285   8.2407   8.2407  14.6061  16.4723  16.4723  19.2635

          k = 0.0000 0.0000 0.0571 (   841 PWs)   bands (ev):

    -5.6004   8.1717   8.5997   8.5997  15.3980  16.3608  17.5561  17.5561

          k = 0.0286-0.0286 0.0857 (   838 PWs)   bands (ev):

    -4.9114   5.9939   8.0602   8.3025  14.9330  16.7724  17.9050  18.2709

          k = 0.0571-0.0571 0.1142 (   833 PWs)   bands (ev):

    -3.7094   3.3190   7.7065   7.7661  14.6320  16.7881  18.0147  18.6381

          k =-0.1428 0.1428-0.0857 (   825 PWs)   bands (ev):

    -2.4114   1.2701   7.1533   7.8144  14.6021  16.4196  17.4226  19.9895

          k =-0.1142 0.1142-0.0571 (   828 PWs)   bands (ev):

    -2.7834   1.8001   6.8843   8.1753  15.0389  16.4048  17.1594  19.9575

          k =-0.0857 0.0857-0.0286 (   831 PWs)   bands (ev):

    -4.1592   4.1923   7.0279   8.7085  15.7241  16.7968  17.2157  18.7307

          k =-0.0571 0.0571 0.0000 (   837 PWs)   bands (ev):

    -5.2056   6.6065   7.8072   9.1314  16.2760  16.4501  16.9688  18.0262

          k = 0.0000 0.0000 0.1142 (   833 PWs)   bands (ev):

    -4.4226   5.9458   7.3735   7.3735  13.3114  15.5772  19.7488  19.7488

          k = 0.0286-0.0286 0.1428 (   829 PWs)   bands (ev):

    -3.4037   4.1815   6.5077   6.9798  12.8619  15.5526  19.7366  20.2266

          k =-0.1713 0.1713-0.0571 (   822 PWs)   bands (ev):

    -2.1015   2.2736   5.3659   6.9997  13.0063  17.1806  19.6469  19.6871

          k =-0.1428 0.1428-0.0286 (   828 PWs)   bands (ev):

    -1.8019   1.9191   4.6738   7.4233  13.6302  18.1480  19.0188  20.2931

          k =-0.1142 0.1142 0.0000 (   837 PWs)   bands (ev):

    -3.0141   3.3809   4.9914   8.1126  14.7782  17.9412  18.2447  19.0175

          k = 0.0000 0.0000 0.1713 (   817 PWs)   bands (ev):

    -2.5961   3.3765   6.4561   6.4561  11.3863  14.0710  21.9987  21.9987

          k =-0.1999 0.1999-0.0286 (   819 PWs)   bands (ev):

    -1.5031   2.2196   5.2653   6.3608  11.5640  14.6581  22.0416  22.1099

          k =-0.1713 0.1713 0.0000 (   824 PWs)   bands (ev):

    -1.0505   2.0504   3.8150   6.7152  12.3950  16.9838  21.0176  21.5951

          k = 0.0000 0.0000-0.2284 (   806 PWs)   bands (ev):

    -1.0468   1.5378   6.1293   6.1293  10.6691  13.5759  23.1499  23.1499

          k = 0.0571 0.0000 0.1142 (   838 PWs)   bands (ev):

    -4.0549   4.8237   6.4559   8.0224  14.6156  16.8239  17.6670  19.2472

          k =-0.1428 0.1999-0.0857 (   826 PWs)   bands (ev):

    -2.7709   2.8180   5.7188   7.3822  14.5689  16.7924  18.3826  19.6359

          k =-0.1142 0.1713-0.0571 (   824 PWs)   bands (ev):

    -1.8430   1.5234   5.6046   7.0511  14.5158  16.4771  19.3244  20.1738

          k =-0.1713 0.2284-0.0571 (   814 PWs)   bands (ev):

    -2.3078   3.1299   5.4880   6.2026  12.9288  15.6594  19.4446  21.8898

          k =-0.1428 0.1999-0.0286 (   826 PWs)   bands (ev):

    -1.2561   2.1929   4.3477   5.9296  13.6138  17.2991  19.0090  21.3615

          k =-0.1142 0.1713 0.0000 (   825 PWs)   bands (ev):

    -1.6053   2.4907   4.0863   6.4874  14.3030  17.5678  18.9550  20.6843

          k = 0.0571 0.0000-0.2284 (   818 PWs)   bands (ev):

    -0.9396   1.8383   5.2632   5.2876  12.3477  15.2413  21.1084  22.4441

          k = 0.1142 0.0000-0.2284 (   848 PWs)   bands (ev):

    -0.8218   2.2888   4.3645   4.6554  14.4838  18.5986  18.6279  19.0117

     the Fermi energy is    10.3959 ev

!    total energy              =     -22.67819977 Ry
     Harris-Foulkes estimate   =     -22.67819977 Ry
     estimated scf accuracy    <          7.0E-12 Ry

     The total energy is the sum of the following terms:

     one-electron contribution =       5.53374102 Ry
     hartree contribution      =       2.34769550 Ry
     xc contribution           =      -9.72349088 Ry
     ewald contribution        =     -20.83614541 Ry
     smearing contrib. (-TS)   =      -0.00000000 Ry

     convergence has been achieved in   9 iterations

     Forces acting on atoms (cartesian axes, Ry/au):

     atom    1 type  1   force =     0.00000000   -0.00000000   -0.00000000
     atom    2 type  2   force =     0.00000000   -0.00000000    0.00000000

     Total force =     0.000000     Total SCF correction =     0.000000


     Computing stress (Cartesian axis) and pressure

          total   stress  (Ry/bohr**3)                   (kbar)     P=   -0.14
  -0.00000096   0.00000000  -0.00000000         -0.14      0.00     -0.00
  -0.00000000  -0.00000096  -0.00000000         -0.00     -0.14     -0.00
  -0.00000000  -0.00000000  -0.00000096         -0.00     -0.00     -0.14


     number of scf cycles    =   3
     number of bfgs steps    =   2

     enthalpy old            =     -22.6781931925 Ry
     enthalpy new            =     -22.6781997671 Ry

     CASE: enthalpy_new < enthalpy_old

     small trust_radius: resetting bfgs history

     new trust radius        =       0.0000569653 bohr
     new conv_thr            =            1.0E-11 Ry

     new unit-cell volume =    141.54636 a.u.^3 (    20.97501 Ang^3 )
     density =      0.15834 g/cm^3

CELL_PARAMETERS (alat=  1.88972613)
   2.188890473   2.188890473   0.000000000
   0.000000000   2.188890473   2.188890473
   2.188890473   0.000000000   2.188890473

ATOMIC_POSITIONS (crystal)
Si       0.000000000  -0.000000000   0.000000000
C        0.250000000   0.250000000   0.250000000



     Writing output data file pwscf.save
     NEW-OLD atomic charge density approx. for the potential
     extrapolated charge    7.99943, renormalised to    8.00000

     total cpu time spent up to now is       60.8 secs

     per-process dynamical memory:    38.8 Mb

     Self-consistent Calculation

     iteration #  1     ecut=    50.00 Ry     beta=0.80
     Davidson diagonalization with overlap
     ethr =  1.00E-06,  avg # of iterations =  1.5

     Threshold (ethr) on eigenvalues was too large:
     Diagonalizing with lowered threshold

     Davidson diagonalization with overlap
     ethr =  2.16E-10,  avg # of iterations =  1.0

     total cpu time spent up to now is       62.0 secs

     total energy              =     -22.67819974 Ry
     Harris-Foulkes estimate   =     -22.67794737 Ry
     estimated scf accuracy    <       0.00000002 Ry

     iteration #  2     ecut=    50.00 Ry     beta=0.80
     Davidson diagonalization with overlap
     ethr =  2.44E-10,  avg # of iterations =  2.6

     total cpu time spent up to now is       62.8 secs

     total energy              =     -22.67819977 Ry
     Harris-Foulkes estimate   =     -22.67819980 Ry
     estimated scf accuracy    <       0.00000008 Ry

     iteration #  3     ecut=    50.00 Ry     beta=0.80
     Davidson diagonalization with overlap
     ethr =  2.44E-10,  avg # of iterations =  2.0

     total cpu time spent up to now is       63.6 secs

     total energy              =     -22.67819977 Ry
     Harris-Foulkes estimate   =     -22.67819978 Ry
     estimated scf accuracy    <       0.00000001 Ry

     iteration #  4     ecut=    50.00 Ry     beta=0.80
     Davidson diagonalization with overlap
     ethr =  1.33E-10,  avg # of iterations =  1.0

     total cpu time spent up to now is       64.2 secs

     total energy              =     -22.67819977 Ry
     Harris-Foulkes estimate   =     -22.67819977 Ry
     estimated scf accuracy    <          2.1E-09 Ry

     iteration #  5     ecut=    50.00 Ry     beta=0.80
     Davidson diagonalization with overlap
     ethr =  2.57E-11,  avg # of iterations =  2.0

     total cpu time spent up to now is       65.0 secs

     total energy              =     -22.67819977 Ry
     Harris-Foulkes estimate   =     -22.67819977 Ry
     estimated scf accuracy    <          5.2E-11 Ry

     iteration #  6     ecut=    50.00 Ry     beta=0.80
     Davidson diagonalization with overlap
     ethr =  6.46E-13,  avg # of iterations =  1.9

     total cpu time spent up to now is       65.7 secs

     End of self-consistent calculation

          k = 0.0000 0.0000 0.0000 (   869 PWs)   bands (ev):

    -6.0019   9.2921   9.2921   9.2921  15.3642  16.5123  16.5123  16.5123

          k = 0.0286-0.0286 0.0286 (   845 PWs)   bands (ev):

    -5.7006   7.8128   9.0915   9.0915  15.6345  16.8607  16.8607  17.0059

          k = 0.0571-0.0571 0.0571 (   827 PWs)   bands (ev):

    -4.8199   5.0250   8.6872   8.6872  15.1648  17.1221  17.1221  18.5176

          k = 0.0857-0.0857 0.0857 (   832 PWs)   bands (ev):

    -3.4828   2.3132   8.3605   8.3605  14.7507  16.7188  16.7188  19.2173

          k =-0.1142 0.1142-0.1142 (   832 PWs)   bands (ev):

    -2.4840   0.8290   8.2416   8.2416  14.6076  16.4735  16.4735  19.2648

          k = 0.0000 0.0000 0.0571 (   841 PWs)   bands (ev):

    -5.6000   8.1726   8.6005   8.6005  15.3993  16.3625  17.5575  17.5575

          k = 0.0286-0.0286 0.0857 (   838 PWs)   bands (ev):

    -4.9110   5.9947   8.0610   8.3034  14.9342  16.7739  17.9063  18.2723

          k = 0.0571-0.0571 0.1142 (   833 PWs)   bands (ev):

    -3.7089   3.3197   7.7074   7.7669  14.6332  16.7895  18.0160  18.6395

          k =-0.1428 0.1428-0.0857 (   825 PWs)   bands (ev):

    -2.4108   1.2707   7.1541   7.8153  14.6034  16.4210  17.4238  19.9910

          k =-0.1142 0.1142-0.0571 (   828 PWs)   bands (ev):

    -2.7829   1.8007   6.8852   8.1761  15.0402  16.4061  17.1606  19.9590

          k =-0.0857 0.0857-0.0286 (   831 PWs)   bands (ev):

    -4.1588   4.1931   7.0287   8.7094  15.7255  16.7982  17.2170  18.7322

          k =-0.0571 0.0571 0.0000 (   837 PWs)   bands (ev):

    -5.2052   6.6073   7.8080   9.1323  16.2774  16.4517  16.9702  18.0276

          k = 0.0000 0.0000 0.1142 (   833 PWs)   bands (ev):

    -4.4222   5.9467   7.3743   7.3743  13.3126  15.5784  19.7503  19.7503

          k = 0.0286-0.0286 0.1428 (   829 PWs)   bands (ev):

    -3.4032   4.1823   6.5085   6.9806  12.8629  15.5538  19.7382  20.2281

          k =-0.1713 0.1713-0.0571 (   822 PWs)   bands (ev):

    -2.1009   2.2743   5.3667   7.0005  13.0073  17.1819  19.6485  19.6886

          k =-0.1428 0.1428-0.0286 (   828 PWs)   bands (ev):

    -1.8013   1.9197   4.6745   7.4242  13.6312  18.1494  19.0202  20.2947

          k =-0.1142 0.1142 0.0000 (   837 PWs)   bands (ev):

    -3.0136   3.3816   4.9921   8.1135  14.7793  17.9427  18.2461  19.0191

          k = 0.0000 0.0000 0.1713 (   817 PWs)   bands (ev):

    -2.5956   3.3773   6.4569   6.4569  11.3872  14.0721  22.0004  22.0004

          k =-0.1999 0.1999-0.0286 (   819 PWs)   bands (ev):

    -1.5025   2.2203   5.2660   6.3616  11.5649  14.6593  22.0433  22.1116

          k =-0.1713 0.1713 0.0000 (   824 PWs)   bands (ev):

    -1.0498   2.0511   3.8155   6.7159  12.3960  16.9851  21.0191  21.5968

          k = 0.0000 0.0000-0.2284 (   806 PWs)   bands (ev):

    -1.0462   1.5384   6.1300   6.1300  10.6699  13.5770  23.1517  23.1517

          k = 0.0571 0.0000 0.1142 (   838 PWs)   bands (ev):

    -4.0545   4.8245   6.4566   8.0232  14.6167  16.8254  17.6684  19.2487

          k =-0.1428 0.1999-0.0857 (   826 PWs)   bands (ev):

    -2.7704   2.8187   5.7195   7.3830  14.5700  16.7938  18.3841  19.6374

          k =-0.1142 0.1713-0.0571 (   824 PWs)   bands (ev):

    -1.8424   1.5240   5.6054   7.0519  14.5169  16.4785  19.3259  20.1753

          k =-0.1713 0.2284-0.0571 (   814 PWs)   bands (ev):

    -2.3073   3.1307   5.4887   6.2033  12.9298  15.6607  19.4462  21.8914

          k =-0.1428 0.1999-0.0286 (   826 PWs)   bands (ev):

    -1.2555   2.1936   4.3483   5.9303  13.6148  17.3005  19.0105  21.3630

          k =-0.1142 0.1713 0.0000 (   825 PWs)   bands (ev):

    -1.6047   2.4914   4.0869   6.4881  14.3040  17.5692  18.9565  20.6856

          k = 0.0571 0.0000-0.2284 (   818 PWs)   bands (ev):

    -0.9389   1.8390   5.2639   5.2883  12.3486  15.2426  21.1100  22.4458

          k = 0.1142 0.0000-0.2284 (   848 PWs)   bands (ev):

    -0.8211   2.2896   4.3650   4.6560  14.4848  18.6003  18.6294  19.0129

     the Fermi energy is    10.3970 ev

!    total energy              =     -22.67819977 Ry
     Harris-Foulkes estimate   =     -22.67819977 Ry
     estimated scf accuracy    <          8.1E-12 Ry

     The total energy is the sum of the following terms:

     one-electron contribution =       5.53440279 Ry
     hartree contribution      =       2.34764260 Ry
     xc contribution           =      -9.72360093 Ry
     ewald contribution        =     -20.83664423 Ry
     smearing contrib. (-TS)   =      -0.00000000 Ry

     convergence has been achieved in   6 iterations

     Forces acting on atoms (cartesian axes, Ry/au):

     atom    1 type  1   force =    -0.00000000    0.00000000   -0.00000000
     atom    2 type  2   force =    -0.00000000    0.00000000    0.00000000

     Total force =     0.000000     Total SCF correction =     0.000000


     Computing stress (Cartesian axis) and pressure

          total   stress  (Ry/bohr**3)                   (kbar)     P=    0.01
   0.00000008  -0.00000000   0.00000000          0.01     -0.00      0.00
  -0.00000000   0.00000008   0.00000000         -0.00      0.01      0.00
   0.00000000   0.00000000   0.00000008          0.00      0.00      0.01


     bfgs converged in   4 scf cycles and   3 bfgs steps
     (criteria: energy <  1.0E-04 Ry, force <  1.0E-05Ry/Bohr, cell <  1.0E-01kbar)

     End of BFGS Geometry Optimization

     Final enthalpy =     -22.6781997717 Ry
Begin final coordinates
     new unit-cell volume =    141.54636 a.u.^3 (    20.97501 Ang^3 )
     density =      0.15834 g/cm^3

CELL_PARAMETERS (alat=  1.88972613)
   2.188890473   2.188890473   0.000000000
   0.000000000   2.188890473   2.188890473
   2.188890473   0.000000000   2.188890473

ATOMIC_POSITIONS (crystal)
Si       0.000000000  -0.000000000   0.000000000
C        0.250000000   0.250000000   0.250000000
End final coordinates



     A final scf calculation at the relaxed structure.
     The G-vectors are recalculated for the final unit cell
     Results may differ from those at the preceding step.

     G-vector sticks info
     --------------------
     sticks:   dense  smooth     PW     G-vecs:    dense   smooth      PW
     Sum        1165     475    151                26565     6735    1243



     bravais-lattice index     =            0
     lattice parameter (alat)  =       1.8897  a.u.
     unit-cell volume          =     141.5464 (a.u.)^3
     number of atoms/cell      =            2
     number of atomic types    =            2
     number of electrons       =         8.00
     number of Kohn-Sham states=            8
     kinetic-energy cutoff     =      50.0000  Ry
     charge density cutoff     =     500.0000  Ry
     convergence threshold     =      1.0E-11
     mixing beta               =       0.8000
     number of iterations used =            8  plain     mixing
     Exchange-correlation      = PBE ( 1  4  3  4 0 0)

     celldm(1)=   1.889726  celldm(2)=   0.000000  celldm(3)=   0.000000
     celldm(4)=   0.000000  celldm(5)=   0.000000  celldm(6)=   0.000000

     crystal axes: (cart. coord. in units of alat)
               a(1) = (   2.188890   2.188890   0.000000 )  
               a(2) = (   0.000000   2.188890   2.188890 )  
               a(3) = (   2.188890   0.000000   2.188890 )  

     reciprocal axes: (cart. coord. in units 2 pi/alat)
               b(1) = (  0.228426  0.228426 -0.228426 )  
               b(2) = ( -0.228426  0.228426  0.228426 )  
               b(3) = (  0.228426 -0.228426  0.228426 )  


     PseudoPot. # 1 for Si read from file:
     ./Si.UPF
     MD5 check sum: c1dbf6addbc430d555b7ee244f9ddb0e
     Pseudo is Ultrasoft + core correction, Zval =  4.0
     Generated using "atomic" code by A. Dal Corso  v.5.4.0
     Using radial grid of 1141 points,  4 beta functions with: 
                l(1) =   0
                l(2) =   0
                l(3) =   1
                l(4) =   1
     Q(r) pseudized with 0 coefficients 


     PseudoPot. # 2 for  C read from file:
     ./C.UPF
     MD5 check sum: ab2a259a8df52b5ef32245f590d8fbaf
     Pseudo is Ultrasoft + core correction, Zval =  4.0
     Generated using "atomic" code by A. Dal Corso  v.5.4.0
     Using radial grid of 1073 points,  4 beta functions with: 
                l(1) =   0
                l(2) =   0
                l(3) =   1
                l(4) =   1
     Q(r) pseudized with 0 coefficients 


     atomic species   valence    mass     pseudopotential
        Si             4.00     1.00000     Si( 1.00)
        C              4.00     1.00000      C( 1.00)

     24 Sym. Ops. (no inversion) found



   Cartesian axes

     site n.     atom                  positions (alat units)
         1           Si  tau(   1) = (   0.0000000  -0.0000000  -0.0000000  )
         2           C   tau(   2) = (   1.0944452   1.0944452   1.0944452  )

     number of k points=    29  gaussian smearing, width (Ry)=  0.0000
                       cart. coord. in units 2pi/alat
        k(    1) = (   0.0000000   0.0000000   0.0000000), wk =   0.0039062
        k(    2) = (   0.0285533  -0.0285533   0.0285533), wk =   0.0312500
        k(    3) = (   0.0571066  -0.0571066   0.0571066), wk =   0.0312500
        k(    4) = (   0.0856598  -0.0856598   0.0856598), wk =   0.0312500
        k(    5) = (  -0.1142131   0.1142131  -0.1142131), wk =   0.0156250
        k(    6) = (   0.0000000   0.0000000   0.0571066), wk =   0.0234375
        k(    7) = (   0.0285533  -0.0285533   0.0856598), wk =   0.0937500
        k(    8) = (   0.0571066  -0.0571066   0.1142131), wk =   0.0937500
        k(    9) = (  -0.1427664   0.1427664  -0.0856598), wk =   0.0937500
        k(   10) = (  -0.1142131   0.1142131  -0.0571066), wk =   0.0937500
        k(   11) = (  -0.0856598   0.0856598  -0.0285533), wk =   0.0937500
        k(   12) = (  -0.0571066   0.0571066   0.0000000), wk =   0.0468750
        k(   13) = (   0.0000000   0.0000000   0.1142131), wk =   0.0234375
        k(   14) = (   0.0285533  -0.0285533   0.1427664), wk =   0.0937500
        k(   15) = (  -0.1713197   0.1713197  -0.0571066), wk =   0.0937500
        k(   16) = (  -0.1427664   0.1427664  -0.0285533), wk =   0.0937500
        k(   17) = (  -0.1142131   0.1142131   0.0000000), wk =   0.0468750
        k(   18) = (   0.0000000   0.0000000   0.1713197), wk =   0.0234375
        k(   19) = (  -0.1998730   0.1998730  -0.0285533), wk =   0.0937500
        k(   20) = (  -0.1713197   0.1713197   0.0000000), wk =   0.0468750
        k(   21) = (   0.0000000   0.0000000  -0.2284262), wk =   0.0117188
        k(   22) = (   0.0571066   0.0000000   0.1142131), wk =   0.0937500
        k(   23) = (  -0.1427664   0.1998730  -0.0856598), wk =   0.1875000
        k(   24) = (  -0.1142131   0.1713197  -0.0571066), wk =   0.0937500
        k(   25) = (  -0.1713197   0.2284262  -0.0571066), wk =   0.0937500
        k(   26) = (  -0.1427664   0.1998730  -0.0285533), wk =   0.1875000
        k(   27) = (  -0.1142131   0.1713197   0.0000000), wk =   0.0937500
        k(   28) = (   0.0571066   0.0000000  -0.2284262), wk =   0.0468750
        k(   29) = (   0.1142131   0.0000000  -0.2284262), wk =   0.0234375

     Dense  grid:    26565 G-vectors     FFT dimensions: (  45,  45,  45)

     Smooth grid:     6735 G-vectors     FFT dimensions: (  27,  27,  27)

     Estimated max dynamical RAM per process >      21.31MB

     Initial potential from superposition of free atoms

     starting charge    7.99940, renormalised to    8.00000
     Starting wfc are    8 randomized atomic wfcs

     Writing output data file pwscf.save

     total cpu time spent up to now is       75.6 secs

     per-process dynamical memory:    36.1 Mb

     Self-consistent Calculation

     iteration #  1     ecut=    50.00 Ry     beta=0.80
     Davidson diagonalization with overlap
     ethr =  1.00E-06,  avg # of iterations =  9.2

     total cpu time spent up to now is       77.4 secs

     total energy              =     -22.50967369 Ry
     Harris-Foulkes estimate   =     -22.80991285 Ry
     estimated scf accuracy    <       0.43160100 Ry

     iteration #  2     ecut=    50.00 Ry     beta=0.80
     Davidson diagonalization with overlap
     ethr =  5.40E-03,  avg # of iterations =  2.0

     total cpu time spent up to now is       78.2 secs

     total energy              =     -22.61504531 Ry
     Harris-Foulkes estimate   =     -22.78659281 Ry
     estimated scf accuracy    <       0.32712774 Ry

     iteration #  3     ecut=    50.00 Ry     beta=0.80
     Davidson diagonalization with overlap
     ethr =  4.09E-03,  avg # of iterations =  1.9

     total cpu time spent up to now is       78.9 secs

     total energy              =     -22.67758818 Ry
     Harris-Foulkes estimate   =     -22.67759503 Ry
     estimated scf accuracy    <       0.00068123 Ry

     iteration #  4     ecut=    50.00 Ry     beta=0.80
     Davidson diagonalization with overlap
     ethr =  8.52E-06,  avg # of iterations =  3.5

     total cpu time spent up to now is       79.9 secs

     total energy              =     -22.67818919 Ry
     Harris-Foulkes estimate   =     -22.67824129 Ry
     estimated scf accuracy    <       0.00009566 Ry

     iteration #  5     ecut=    50.00 Ry     beta=0.80
     Davidson diagonalization with overlap
     ethr =  1.20E-06,  avg # of iterations =  2.3

     total cpu time spent up to now is       80.7 secs

     total energy              =     -22.67820994 Ry
     Harris-Foulkes estimate   =     -22.67821012 Ry
     estimated scf accuracy    <       0.00000148 Ry

     iteration #  6     ecut=    50.00 Ry     beta=0.80
     Davidson diagonalization with overlap
     ethr =  1.85E-08,  avg # of iterations =  2.0

     total cpu time spent up to now is       81.4 secs

     total energy              =     -22.67821030 Ry
     Harris-Foulkes estimate   =     -22.67821030 Ry
     estimated scf accuracy    <       0.00000002 Ry

     iteration #  7     ecut=    50.00 Ry     beta=0.80
     Davidson diagonalization with overlap
     ethr =  2.64E-10,  avg # of iterations =  2.1

     total cpu time spent up to now is       82.2 secs

     total energy              =     -22.67821030 Ry
     Harris-Foulkes estimate   =     -22.67821030 Ry
     estimated scf accuracy    <          6.6E-09 Ry

     iteration #  8     ecut=    50.00 Ry     beta=0.80
     Davidson diagonalization with overlap
     ethr =  8.23E-11,  avg # of iterations =  2.0

     total cpu time spent up to now is       82.9 secs

     total energy              =     -22.67821030 Ry
     Harris-Foulkes estimate   =     -22.67821030 Ry
     estimated scf accuracy    <          2.6E-11 Ry

     iteration #  9     ecut=    50.00 Ry     beta=0.80
     Davidson diagonalization with overlap
     ethr =  3.21E-13,  avg # of iterations =  2.9

     total cpu time spent up to now is       83.8 secs

     End of self-consistent calculation

          k = 0.0000 0.0000 0.0000 (   869 PWs)   bands (ev):

    -6.0019   9.2921   9.2921   9.2921  15.3642  16.5123  16.5123  16.5123

          k = 0.0286-0.0286 0.0286 (   863 PWs)   bands (ev):

    -5.7006   7.8128   9.0915   9.0915  15.6345  16.8606  16.8606  17.0059

          k = 0.0571-0.0571 0.0571 (   851 PWs)   bands (ev):

    -4.8199   5.0249   8.6872   8.6872  15.1648  17.1221  17.1221  18.5176

          k = 0.0857-0.0857 0.0857 (   848 PWs)   bands (ev):

    -3.4828   2.3132   8.3605   8.3605  14.7507  16.7187  16.7187  19.2173

          k =-0.1142 0.1142-0.1142 (   832 PWs)   bands (ev):

    -2.4840   0.8290   8.2416   8.2416  14.6076  16.4735  16.4735  19.2648

          k = 0.0000 0.0000 0.0571 (   877 PWs)   bands (ev):

    -5.6001   8.1726   8.6005   8.6005  15.3993  16.3624  17.5575  17.5575

          k = 0.0286-0.0286 0.0857 (   858 PWs)   bands (ev):

    -4.9111   5.9947   8.0610   8.3034  14.9342  16.7739  17.9062  18.2723

          k = 0.0571-0.0571 0.1142 (   852 PWs)   bands (ev):

    -3.7089   3.3196   7.7074   7.7669  14.6332  16.7895  18.0160  18.6395

          k =-0.1428 0.1428-0.0857 (   842 PWs)   bands (ev):

    -2.4108   1.2707   7.1541   7.8153  14.6033  16.4210  17.4238  19.9910

          k =-0.1142 0.1142-0.0571 (   849 PWs)   bands (ev):

    -2.7829   1.8007   6.8852   8.1761  15.0401  16.4061  17.1606  19.9590

          k =-0.0857 0.0857-0.0286 (   846 PWs)   bands (ev):

    -4.1588   4.1931   7.0287   8.7094  15.7255  16.7981  17.2170  18.7322

          k =-0.0571 0.0571 0.0000 (   847 PWs)   bands (ev):

    -5.2052   6.6073   7.8080   9.1323  16.2774  16.4516  16.9702  18.0276

          k = 0.0000 0.0000 0.1142 (   849 PWs)   bands (ev):

    -4.4222   5.9467   7.3743   7.3743  13.3125  15.5784  19.7503  19.7503

          k = 0.0286-0.0286 0.1428 (   845 PWs)   bands (ev):

    -3.4033   4.1823   6.5085   6.9806  12.8629  15.5538  19.7382  20.2281

          k =-0.1713 0.1713-0.0571 (   842 PWs)   bands (ev):

    -2.1009   2.2743   5.3667   7.0005  13.0073  17.1819  19.6485  19.6885

          k =-0.1428 0.1428-0.0286 (   841 PWs)   bands (ev):

    -1.8013   1.9197   4.6745   7.4242  13.6312  18.1494  19.0202  20.2947

          k =-0.1142 0.1142 0.0000 (   847 PWs)   bands (ev):

    -3.0136   3.3816   4.9921   8.1135  14.7793  17.9427  18.2461  19.0191

          k = 0.0000 0.0000 0.1713 (   842 PWs)   bands (ev):

    -2.5956   3.3773   6.4569   6.4569  11.3872  14.0721  22.0003  22.0003

          k =-0.1999 0.1999-0.0286 (   837 PWs)   bands (ev):

    -1.5025   2.2203   5.2660   6.3616  11.5649  14.6593  22.0432  22.1115

          k =-0.1713 0.1713 0.0000 (   834 PWs)   bands (ev):

    -1.0499   2.0511   3.8155   6.7159  12.3959  16.9850  21.0191  21.5968

          k = 0.0000 0.0000-0.2284 (   846 PWs)   bands (ev):

    -1.0462   1.5384   6.1300   6.1300  10.6699  13.5770  23.1515  23.8794

          k = 0.0571 0.0000 0.1142 (   845 PWs)   bands (ev):

    -4.0545   4.8245   6.4567   8.0233  14.6167  16.8253  17.6684  19.2487

          k =-0.1428 0.1999-0.0857 (   845 PWs)   bands (ev):

    -2.7704   2.8187   5.7195   7.3830  14.5700  16.7937  18.3841  19.6373

          k =-0.1142 0.1713-0.0571 (   838 PWs)   bands (ev):

    -1.8424   1.5240   5.6054   7.0519  14.5168  16.4785  19.3258  20.1753

          k =-0.1713 0.2284-0.0571 (   856 PWs)   bands (ev):

    -2.3073   3.1307   5.4887   6.2033  12.9297  15.6606  19.4461  21.8914

          k =-0.1428 0.1999-0.0286 (   844 PWs)   bands (ev):

    -1.2555   2.1936   4.3483   5.9303  13.6148  17.3005  19.0104  21.3630

          k =-0.1142 0.1713 0.0000 (   840 PWs)   bands (ev):

    -1.6047   2.4914   4.0869   6.4881  14.3040  17.5692  18.9565  20.6856

          k = 0.0571 0.0000-0.2284 (   848 PWs)   bands (ev):

    -0.9389   1.8390   5.2639   5.2883  12.3486  15.2425  21.1099  22.4458

          k = 0.1142 0.0000-0.2284 (   848 PWs)   bands (ev):

    -0.8211   2.2896   4.3650   4.6560  14.4848  18.6003  18.6294  19.0129

     the Fermi energy is     9.8725 ev

!    total energy              =     -22.67821030 Ry
     Harris-Foulkes estimate   =     -22.67821030 Ry
     estimated scf accuracy    <          1.8E-12 Ry

     The total energy is the sum of the following terms:

     one-electron contribution =       5.53440869 Ry
     hartree contribution      =       2.34763684 Ry
     xc contribution           =      -9.72361160 Ry
     ewald contribution        =     -20.83664423 Ry
     smearing contrib. (-TS)   =      -0.00000000 Ry

     convergence has been achieved in   9 iterations

     Forces acting on atoms (cartesian axes, Ry/au):

     atom    1 type  1   force =     0.00000000    0.00000000    0.00000000
     atom    2 type  2   force =     0.00000000   -0.00000000    0.00000000

     Total force =     0.000000     Total SCF correction =     0.000000


     Computing stress (Cartesian axis) and pressure

          total   stress  (Ry/bohr**3)                   (kbar)     P=   -0.01
  -0.00000008   0.00000000  -0.00000000         -0.01      0.00     -0.00
  -0.00000000  -0.00000008   0.00000000         -0.00     -0.01      0.00
   0.00000000  -0.00000000  -0.00000008          0.00     -0.00     -0.01


     Writing output data file pwscf.save

     init_run     :      4.51s CPU      4.54s WALL (       2 calls)
     electrons    :     33.33s CPU     33.71s WALL (       5 calls)
     update_pot   :     10.78s CPU     10.84s WALL (       3 calls)
     forces       :      9.27s CPU      9.33s WALL (       5 calls)
     stress       :     25.32s CPU     25.51s WALL (       5 calls)

     Called by init_run:
     wfcinit      :      0.44s CPU      0.45s WALL (       2 calls)
     potinit      :      1.02s CPU      1.02s WALL (       2 calls)

     Called by electrons:
     c_bands      :     23.17s CPU     23.47s WALL (      42 calls)
     sum_band     :      6.06s CPU      6.12s WALL (      42 calls)
     v_of_rho     :      3.04s CPU      3.06s WALL (      46 calls)
     newd         :      1.10s CPU      1.11s WALL (      46 calls)
     mix_rho      :      0.22s CPU      0.22s WALL (      42 calls)

     Called by c_bands:
     init_us_2    :      0.71s CPU      0.72s WALL (    2784 calls)
     cegterg      :     22.47s CPU     22.75s WALL (    1218 calls)

     Called by sum_band:
     sum_band:bec :      0.01s CPU      0.01s WALL (    1218 calls)
     addusdens    :      1.24s CPU      1.26s WALL (      42 calls)

     Called by *egterg:
     h_psi        :     19.25s CPU     19.46s WALL (    4008 calls)
     s_psi        :      0.63s CPU      0.63s WALL (    4008 calls)
     g_psi        :      0.09s CPU      0.09s WALL (    2732 calls)
     cdiaghg      :      0.43s CPU      0.44s WALL (    3834 calls)

     Called by h_psi:
     h_psi:pot    :     19.15s CPU     19.37s WALL (    4008 calls)
     h_psi:calbec :      0.66s CPU      0.67s WALL (    4008 calls)
     vloc_psi     :     17.85s CPU     18.03s WALL (    4008 calls)
     add_vuspsi   :      0.64s CPU      0.64s WALL (    4008 calls)

     General routines
     calbec       :      1.04s CPU      1.05s WALL (    5951 calls)
     fft          :      1.93s CPU      1.94s WALL (     848 calls)
     ffts         :      0.04s CPU      0.04s WALL (      88 calls)
     fftw         :     17.58s CPU     17.75s WALL (   60778 calls)
     interpolate  :      0.27s CPU      0.27s WALL (      88 calls)
     davcio       :      0.00s CPU      0.00s WALL (      58 calls)


     PWSCF        :  1m23.78s CPU     1m24.56s WALL


   This run was terminated on:  14:41: 3   2Apr2019            

=------------------------------------------------------------------------------=
   JOB DONE.
=------------------------------------------------------------------------------=
