<UPF version="2.0.1">
  <PP_INFO>
    Generated using "atomic" code by A. Dal Corso  v.5.4.0
    Author: ADC
    Generation date:  2Jul2016
    Pseudopotential type: USPP
    Element: Si
    Functional: PBE

    Suggested minimum cutoff for wavefunctions:  44. Ry
    Suggested minimum cutoff for charge density: 175. Ry
    The Pseudo was generated with a Scalar-Relativistic Calculation
    L component and cutoff radius for Local Potential:  2   1.7000
    Pseudopotential contains additional information for GIPAW reconstruction.

    Valence configuration: 
    nl pn  l   occ       Rcut    Rcut US       E pseu
    3S  1  0  2.00      1.600      1.800    -0.794728
    3P  2  1  2.00      1.600      1.800    -0.299965
    Generation configuration:
    3S  1  0  2.00      1.600      1.800    -0.794724
    3S  1  0  0.00      1.600      1.800     6.000000
    3P  2  1  2.00      1.600      1.800    -0.299964
    3P  2  1  0.00      1.600      1.800     6.000000
    3D  3  2  0.00      1.700      1.700     0.100000

    Pseudization used: troullier-martins
<PP_INPUTFILE>
 &input
   title='Si',
   zed=14.,
   rel=1,
   config='[Ne] 3s2 3p2 3d-1',
   iswitch=3,
   dft='PBE'
 /
 &inputp
   lpaw=.false.,
   pseudotype=3,
   file_pseudopw='Si.pbe-nl-rrkjus_psl.1.0.0.UPF',
   author='ADC',
   lloc=2,
   which_augfun='PSQ',
   rmatch_augfun_nc=.true.,
   nlcc=.true.,
   new_core_ps=.true.,
   rcore=1.4,
   tm=.true.
 /
5
3S  1  0  2.00  0.00  1.60  1.80  0.0
3S  1  0  0.00  6.00  1.60  1.80  0.0
3P  2  1  2.00  0.00  1.60  1.80  0.0
3P  2  1  0.00  6.00  1.60  1.80  0.0
3D  3  2  0.00  0.10  1.70  1.70  0.0
</PP_INPUTFILE>
  </PP_INFO>
  <!--                               -->
  <!-- END OF HUMAN READABLE SECTION -->
  <!--                               -->
  <PP_HEADER generated='Generated using "atomic" code by A. Dal Corso  v.5.4.0'
             author="ADC"
             date=" 2Jul2016"
             comment=""
             element="Si"
             pseudo_type="USPP"
             relativistic="scalar"
             is_ultrasoft="T"
             is_paw="F"
             is_coulomb="F"
             has_so="F"
             has_wfc="F"
             has_gipaw="T"
             paw_as_gipaw="F"
             core_correction="T"
             functional="PBE"
             z_valence="4.000000000000000E+000"
             total_psenergy="-9.821681160354249E+000"
             wfc_cutoff="4.374353158691011E+001"
             rho_cutoff="1.749741263476404E+002"
             l_max="2"
             l_max_rho="4"
             l_local="2"
             mesh_size="1141"
             number_of_wfc="2"
             number_of_proj="4"/>
  <PP_MESH dx="1.250000000000000E-002" mesh="1141" xmin="-7.000000000000000E+000" rmax="1.000000000000000E+002"
zmesh="1.400000000000000E+001">
    <PP_R type="real" size="1141" columns="4">
 6.513442611103688E-005  6.595371633350159E-005  6.678331195832729E-005  6.762334261151813E-005 
 6.847393954957285E-005  6.933523567999349E-005  7.020736558205276E-005  7.109046552782224E-005 
 7.198467350346503E-005  7.289012923079676E-005  7.380697418911693E-005  7.473535163731561E-005 
 7.567540663625787E-005  7.662728607144977E-005  7.759113867598985E-005  7.856711505380845E-005 
 7.955536770320024E-005  8.055605104065232E-005  8.156932142497197E-005  8.259533718171841E-005 
 8.363425862794104E-005  8.468624809722948E-005  8.575146996507863E-005  8.683009067457247E-005 
 8.792227876239150E-005  8.902820488514639E-005  9.014804184604389E-005  9.128196462188746E-005 
 9.243015039041771E-005  9.359277855799715E-005  9.477003078764225E-005  9.596209102740905E-005 
 9.716914553913527E-005  9.839138292754407E-005  9.962899416971419E-005  1.008821726449201E-004 
 1.021511141648482E-004  1.034360170041925E-004  1.047370819316359E-004  1.060545122412205E-004 
 1.073885137841123E-004  1.087392950007665E-004  1.101070669534965E-004  1.114920433594523E-004 
 1.128944406240155E-004  1.143144778746117E-004  1.157523769949505E-004  1.172083626596947E-004 
 1.186826623695667E-004  1.201755064868958E-004  1.216871282716124E-004  1.232177639176959E-004 
 1.247676525900800E-004  1.263370364620229E-004  1.279261607529478E-004  1.295352737667582E-004 
 1.311646269306362E-004  1.328144748343287E-004  1.344850752699270E-004  1.361766892721483E-004 
 1.378895811591221E-004  1.396240185736905E-004  1.413802725252283E-004  1.431586174319885E-004 
 1.449593311639810E-004  1.467826950863899E-004  1.486289941035378E-004  1.504985167034024E-004 
 1.523915550026934E-004  1.543084047924968E-004  1.562493655844918E-004  1.582147406577512E-004 
 1.602048371061288E-004  1.622199658862433E-004  1.642604418660669E-004  1.663265838741224E-004 
 1.684187147493023E-004  1.705371613913124E-004  1.726822548117502E-004  1.748543301858274E-004 
 1.770537269047399E-004  1.792807886286999E-004  1.815358633406327E-004  1.838193034005500E-004 
 1.861314656006070E-004  1.884727112208515E-004  1.908434060856750E-004  1.932439206209733E-004 
 1.956746299120263E-004  1.981359137621063E-004  2.006281567518223E-004  2.031517482992120E-004 
 2.057070827205888E-004  2.082945592921548E-004  2.109145823123890E-004  2.135675611652186E-004 
 2.162539103839868E-004  2.189740497162245E-004  2.217284041892363E-004  2.245174041765129E-004 
 2.273414854649762E-004  2.302010893230733E-004  2.330966625697249E-004  2.360286576441416E-004 
 2.389975326765194E-004  2.420037515596223E-004  2.450477840212668E-004  2.481301056977181E-004 
 2.512511982080092E-004  2.544115492291950E-004  2.576116525725522E-004  2.608520082607388E-004 
 2.641331226059237E-004  2.674555082888986E-004  2.708196844391863E-004  2.742261767161545E-004 
 2.776755173911522E-004  2.811682454306774E-004  2.847049065805922E-004  2.882860534513970E-004 
 2.919122456045762E-004  2.955840496400312E-004  2.993020392846128E-004  3.030667954817672E-004 
 3.068789064823100E-004  3.107389679363406E-004  3.146475829863147E-004  3.186053623612859E-004 
 3.226129244723333E-004  3.266708955091909E-004  3.307799095380890E-004  3.349406086008293E-004 
 3.391536428151055E-004  3.434196704760847E-004  3.477393581592688E-004  3.521133808246465E-004 
 3.565424219221583E-004  3.610271734984867E-004  3.655683363051894E-004  3.701666199081946E-004 
 3.748227427986703E-004  3.795374325052911E-004  3.843114257079157E-004  3.891454683526947E-004 
 3.940403157686265E-004  3.989967327855786E-004  4.040154938537934E-004  4.090973831648989E-004 
 4.142431947744387E-004  4.194537327259466E-004  4.247298111765782E-004  4.300722545243256E-004 
 4.354818975368313E-004  4.409595854818215E-004  4.465061742591829E-004  4.521225305346962E-004 
 4.578095318754559E-004  4.635680668869919E-004  4.693990353521152E-004  4.753033483715124E-004 
 4.812819285061048E-004  4.873357099212019E-004  4.934656385324666E-004  4.996726721537150E-004 
 5.059577806465804E-004  5.123219460720500E-004  5.187661628439208E-004  5.252914378841740E-004 
 5.318987907803099E-004  5.385892539446626E-004  5.453638727757115E-004  5.522237058214336E-004 
 5.591698249446981E-004  5.662033154907496E-004  5.733252764567972E-004  5.805368206637293E-004 
 5.878390749300021E-004  5.952331802477007E-004  6.027202919608236E-004  6.103015799458105E-004 
 6.179782287943310E-004  6.257514379983877E-004  6.336224221377328E-004  6.415924110696512E-004 
 6.496626501211303E-004  6.578344002834386E-004  6.661089384091661E-004  6.744875574117294E-004 
 6.829715664673932E-004  6.915622912198352E-004  7.002610739872734E-004  7.090692739722151E-004 
 7.179882674738276E-004  7.270194481029906E-004  7.361642270000535E-004  7.454240330553218E-004 
 7.548003131323325E-004  7.642945322939235E-004  7.739081740311537E-004  7.836427404951063E-004 
 7.934997527315933E-004  8.034807509188332E-004  8.135872946080984E-004  8.238209629674015E-004 
 8.341833550282467E-004  8.446760899354727E-004  8.553008072002587E-004  8.660591669562928E-004 
 8.769528502191740E-004  8.879835591490780E-004  8.991530173167141E-004  9.104629699726478E-004 
 9.219151843199909E-004  9.335114497905343E-004  9.452535783243529E-004  9.571434046529162E-004 
 9.691827865857810E-004  9.813736053008674E-004  9.937177656384013E-004  1.006217196398553E-003 
 1.018873850642804E-003  1.031689705999134E-003  1.044666764971016E-003  1.057807055250314E-003 
 1.071112630034123E-003  1.084585568345568E-003  1.098227975358674E-003  1.112041982727292E-003 
 1.126029748918178E-003  1.140193459548259E-003  1.154535327726134E-003  1.169057594397888E-003 
 1.183762528697233E-003  1.198652428300069E-003  1.213729619783506E-003  1.228996458989384E-003 
 1.244455331392394E-003  1.260108652472797E-003  1.275958868093860E-003  1.292008454884022E-003 
 1.308259920623870E-003  1.324715804637992E-003  1.341378678191743E-003  1.358251144893018E-003 
 1.375335841099067E-003  1.392635436328428E-003  1.410152633678056E-003  1.427890170245673E-003 
 1.445850817557456E-003  1.464037382001090E-003  1.482452705264267E-003  1.501099664778717E-003 
 1.519981174169798E-003  1.539100183711769E-003  1.558459680788769E-003  1.578062690361603E-003 
 1.597912275440400E-003  1.618011537563212E-003  1.638363617280638E-003  1.658971694646541E-003 
 1.679838989714936E-003  1.700968763043134E-003  1.722364316201205E-003  1.744028992287860E-003 
 1.765966176452814E-003  1.788179296425725E-003  1.810671823051782E-003  1.833447270834031E-003 
 1.856509198482525E-003  1.879861209470380E-003  1.903506952596820E-003  1.927450122557320E-003 
 1.951694460520898E-003  1.976243754714684E-003  2.001101841015845E-003  2.026272603550936E-003 
 2.051759975302817E-003  2.077567938725177E-003  2.103700526364806E-003  2.130161821491693E-003 
 2.156955958737036E-003  2.184087124739293E-003  2.211559558798349E-003  2.239377553537921E-003 
 2.267545455576282E-003  2.296067666205433E-003  2.324948642078817E-003  2.354192895907669E-003 
 2.383804997166148E-003  2.413789572805326E-003  2.444151307976145E-003  2.474894946761502E-003 
 2.506025292917503E-003  2.537547210624069E-003  2.569465625244976E-003  2.601785524097445E-003 
 2.634511957231430E-003  2.667650038218687E-003  2.701204944951792E-003  2.735181920453190E-003 
 2.769586273694429E-003  2.804423380425701E-003  2.839698684015808E-003  2.875417696302704E-003 
 2.911585998454730E-003  2.948209241842682E-003  2.985293148922851E-003  3.022843514131165E-003 
 3.060866204788585E-003  3.099367162017884E-003  3.138352401671959E-003  3.177828015273823E-003 
 3.217800170968416E-003  3.258275114486386E-003  3.299259170120008E-003  3.340758741711356E-003 
 3.382780313652924E-003  3.425330451900820E-003  3.468415805000712E-003  3.512043105126685E-003 
 3.556219169133139E-003  3.600950899619956E-003  3.646245286011030E-003  3.692109405646387E-003 
 3.738550424888027E-003  3.785575600239700E-003  3.833192279480724E-003  3.881407902814107E-003 
 3.930230004029090E-003  3.979666211678314E-003  4.029724250269811E-003  4.080411941473949E-003 
 4.131737205345606E-003  4.183708061561682E-003  4.236332630674194E-003  4.289619135379139E-003 
 4.343575901801284E-003  4.398211360795159E-003  4.453534049262390E-003  4.509552611485598E-003 
 4.566275800479113E-003  4.623712479356611E-003  4.681871622716026E-003  4.740762318041832E-003 
 4.800393767124982E-003  4.860775287500728E-003  4.921916313904470E-003  4.983826399745976E-003 
 5.046515218602116E-003  5.109992565728373E-003  5.174268359589390E-003  5.239352643408724E-003 
 5.305255586738136E-003  5.371987487046602E-003  5.439558771329309E-003  5.507979997736908E-003 
 5.577261857225227E-003  5.647415175225763E-003  5.718450913337184E-003  5.790380171038089E-003 
 5.863214187421343E-003  5.936964342950183E-003  6.011642161236458E-003  6.087259310841205E-003 
 6.163827607097892E-003  6.241359013958599E-003  6.319865645863379E-003  6.399359769633193E-003 
 6.479853806386611E-003  6.561360333480635E-003  6.643892086475964E-003  6.727461961126906E-003 
 6.812083015396404E-003  6.897768471496347E-003  6.984531717953575E-003  7.072386311701879E-003 
 7.161345980200268E-003  7.251424623577934E-003  7.342636316806174E-003  7.434995311897618E-003 
 7.528516040133167E-003  7.623213114316872E-003  7.719101331059236E-003  7.816195673089213E-003 
 7.914511311595283E-003  8.014063608595981E-003  8.114868119340269E-003  8.216940594738030E-003 
 8.320296983821215E-003  8.424953436235899E-003  8.530926304765688E-003  8.638232147886907E-003 
 8.746887732355853E-003  8.856910035828664E-003  8.968316249514094E-003  9.081123780859684E-003 
 9.195350256271731E-003  9.311013523869408E-003  9.428131656273592E-003  9.546722953430750E-003 
 9.666805945472336E-003  9.788399395610176E-003  9.911522303068234E-003  1.003619390605130E-002 
 1.016243368475098E-002  1.029026136438952E-002  1.041969691830196E-002  1.055076057105692E-002 
 1.068347280161679E-002  1.081785434653762E-002  1.095392620320918E-002  1.109170963313593E-002 
 1.123122616525912E-002  1.137249759932074E-002  1.151554600926978E-002  1.166039374671131E-002 
 1.180706344439904E-002  1.195557801977161E-002  1.210596067853359E-002  1.225823491828135E-002 
 1.241242453217465E-002  1.256855361265439E-002  1.272664655520704E-002  1.288672806217649E-002 
 1.304882314662391E-002  1.321295713623602E-002  1.337915567728265E-002  1.354744473862395E-002 
 1.371785061576816E-002  1.389039993498026E-002  1.406511965744243E-002  1.424203708346680E-002 
 1.442117985676110E-002  1.460257596874815E-002  1.478625376293949E-002  1.497224193936413E-002 
 1.516056955905308E-002  1.535126604858005E-002  1.554436120465950E-002  1.573988519880243E-002 
 1.593786858203070E-002  1.613834228965078E-002  1.634133764608732E-002  1.654688636977778E-002 
 1.675502057812842E-002  1.696577279253272E-002  1.717917594345301E-002  1.739526337556577E-002 
 1.761406885297190E-002  1.783562656447241E-002  1.805997112891046E-002  1.828713760058072E-002 
 1.851716147470655E-002  1.875007869298624E-002  1.898592564920906E-002  1.922473919494170E-002 
 1.946655664528662E-002  1.971141578471237E-002  1.995935487295767E-002  2.021041265100950E-002 
 2.046462834715643E-002  2.072204168311824E-002  2.098269288025235E-002  2.124662266583862E-002 
 2.151387227944302E-002  2.178448347936138E-002  2.205849854914428E-002  2.233596030420385E-002 
 2.261691209850381E-002  2.290139783133363E-002  2.318946195416784E-002  2.348114947761173E-002 
 2.377650597843426E-002  2.407557760668961E-002  2.437841109292814E-002  2.468505375549818E-002 
 2.499555350793967E-002  2.530995886647063E-002  2.562831895756798E-002  2.595068352564368E-002 
 2.627710294081731E-002  2.660762820678664E-002  2.694231096879693E-002  2.728120352171065E-002 
 2.762435881817868E-002  2.797183047691421E-002  2.832367279107093E-002  2.867994073672620E-002 
 2.904068998147138E-002  2.940597689310991E-002  2.977585854846488E-002  3.015039274229754E-002 
 3.052963799633763E-002  3.091365356842768E-002  3.130249946178211E-002  3.169623643436285E-002 
 3.209492600837298E-002  3.249863047986955E-002  3.290741292849757E-002  3.332133722734634E-002 
 3.374046805292962E-002  3.416487089529172E-002  3.459461206824019E-002  3.502975871970760E-002 
 3.547037884224356E-002  3.591654128363864E-002  3.636831575768209E-002  3.682577285505460E-002 
 3.728898405435831E-002  3.775802173328555E-002  3.823295917992788E-002  3.871387060422766E-002 
 3.920083114957333E-002  3.969391690454083E-002  4.019320491478258E-002  4.069877319506593E-002 
 4.121070074146334E-002  4.172906754369543E-002  4.225395459762967E-002  4.278544391793613E-002 
 4.332361855090239E-002  4.386856258740985E-002  4.442036117607288E-002  4.497910053654360E-002 
 4.554486797298384E-002  4.611775188770657E-002  4.669784179498910E-002  4.728522833505959E-002 
 4.788000328825998E-002  4.848225958938678E-002  4.909209134221230E-002  4.970959383418872E-002 
 5.033486355133669E-002  5.096799819332164E-002  5.160909668871948E-002  5.225825921047441E-002 
 5.291558719155128E-002  5.358118334078443E-002  5.425515165892635E-002  5.493759745489794E-002 
 5.562862736224321E-002  5.632834935579119E-002  5.703687276852695E-002  5.775430830867521E-002 
 5.848076807699875E-002  5.921636558431431E-002  5.996121576922910E-002  6.071543501609989E-002 
 6.147914117321845E-002  6.225245357122561E-002  6.303549304175682E-002  6.382838193632255E-002 
 6.463124414542570E-002  6.544420511791986E-002  6.626739188061097E-002  6.710093305810541E-002 
 6.794495889290815E-002  6.879960126577302E-002  6.966499371630951E-002  7.054127146384873E-002 
 7.142857142857142E-002  7.232703225290248E-002  7.323679432317352E-002  7.415799979155897E-002 
 7.509079259828748E-002  7.603531849413281E-002  7.699172506318798E-002  7.796016174592514E-002 
 7.894077986254630E-002  7.993373263662724E-002  8.093917521905902E-002  8.195726471229089E-002 
 8.298816019487740E-002  8.403202274633507E-002  8.508901547231136E-002  8.615930353007005E-002 
 8.724305415429787E-002  8.834043668323466E-002  8.945162258513321E-002  9.057678548505145E-002 
 9.171610119198152E-002  9.286974772632081E-002  9.403790534768729E-002  9.522075658308596E-002 
 9.641848625542886E-002  9.763128151241403E-002  9.885933185576798E-002  1.001028291708553E-001 
 1.013619677566613E-001  1.026369443561518E-001  1.039279581870144E-001  1.052352109727868E-001 
 1.065589069743765E-001  1.078992530219767E-001  1.092564585473843E-001  1.106307356167238E-001 
 1.120222989635835E-001  1.134313660225674E-001  1.148581569632703E-001  1.163028947246794E-001 
 1.177658050500092E-001  1.192471165219745E-001  1.207470605985066E-001  1.222658716489190E-001 
 1.238037869905283E-001  1.253610469257356E-001  1.269378947795742E-001  1.285345769377292E-001 
 1.301513428850364E-001  1.317884452444644E-001  1.334461398165873E-001  1.351246856195550E-001 
 1.368243449295641E-001  1.385453833218397E-001  1.402880697121320E-001  1.420526763987351E-001 
 1.438394791050341E-001  1.456487570225868E-001  1.474807928547491E-001  1.493358728608469E-001 
 1.512142869009054E-001  1.531163284809400E-001  1.550422947988173E-001  1.569924867906931E-001 
 1.589672091780335E-001  1.609667705152292E-001  1.629914832378074E-001  1.650416637112503E-001 
 1.671176322804280E-001  1.692197133196530E-001  1.713482352833642E-001  1.735035307574492E-001 
 1.756859365112108E-001  1.778957935499880E-001  1.801334471684393E-001  1.823992470044948E-001 
 1.846935470939891E-001  1.870167059259787E-001  1.893690864987577E-001  1.917510563765766E-001 
 1.941629877470747E-001  1.966052574794362E-001  1.990782471832751E-001  2.015823432682642E-001 
 2.041179370045118E-001  2.066854245836972E-001  2.092852071809789E-001  2.119176910176763E-001 
 2.145832874247451E-001  2.172824129070476E-001  2.200154892084308E-001  2.227829433776282E-001 
 2.255852078349835E-001  2.284227204400196E-001  2.312959245598545E-001  2.342052691384767E-001 
 2.371512087668965E-001  2.401342037541736E-001  2.431547201993441E-001  2.462132300642484E-001 
 2.493102112472744E-001  2.524461476580338E-001  2.556215292929701E-001  2.588368523119243E-001 
 2.620926191156605E-001  2.653893384243646E-001  2.687275253571367E-001  2.721077015124759E-001 
 2.755303950497838E-001  2.789961407718896E-001  2.825054802086127E-001  2.860589617013806E-001 
 2.896571404889055E-001  2.933005787939437E-001  2.969898459111436E-001  3.007255182959971E-001 
 3.045081796549159E-001  3.083384210364318E-001  3.122168409235541E-001  3.161440453272813E-001 
 3.201206478812903E-001  3.241472699378219E-001  3.282245406647636E-001  3.323530971439621E-001 
 3.365335844707675E-001  3.407666558548287E-001  3.450529727221631E-001  3.493932048185004E-001 
 3.537880303139366E-001  3.582381359088974E-001  3.627442169414344E-001  3.673069774958780E-001 
 3.719271305128465E-001  3.766053979006493E-001  3.813425106480843E-001  3.861392089386548E-001 
 3.909962422662289E-001  3.959143695521446E-001  4.008943592637967E-001  4.059369895347106E-001 
 4.110430482861236E-001  4.162133333501057E-001  4.214486525942155E-001  4.267498240477373E-001 
 4.321176760294964E-001  4.375530472772847E-001  4.430567870789194E-001  4.486297554049404E-001 
 4.542728230429878E-001  4.599868717338617E-001  4.657727943092937E-001  4.716314948314596E-001 
 4.775638887342337E-001  4.835709029662338E-001  4.896534761356559E-001  4.958125586569311E-001 
 5.020491128992358E-001  5.083641133368569E-001  5.147585467014618E-001  5.212334121362741E-001 
 5.277897213521893E-001  5.344284987858633E-001  5.411507817597749E-001  5.479576206443163E-001 
 5.548500790219127E-001  5.618292338532066E-001  5.688961756453415E-001  5.760520086223482E-001 
 5.832978508976890E-001  5.906348346489624E-001  5.980641062948047E-001  6.055868266740273E-001 
 6.132041712269926E-001  6.209173301792859E-001  6.287275087276866E-001  6.366359272284813E-001 
 6.446438213881522E-001  6.527524424564520E-001  6.609630574219206E-001  6.692769492098526E-001 
 6.776954168827519E-001  6.862197758433223E-001  6.948513580399920E-001  7.035915121750415E-001 
 7.124416039153376E-001  7.214030161057181E-001  7.304771489850721E-001  7.396654204051211E-001 
 7.489692660519693E-001  7.583901396704293E-001  7.679295132911682E-001  7.775888774607249E-001 
 7.873697414744003E-001  7.972736336120975E-001  8.073021013771136E-001  8.174567117379372E-001 
 8.277390513731001E-001  8.381507269190867E-001  8.486933652213854E-001  8.593686135886813E-001 
 8.701781400502481E-001  8.811236336165905E-001  8.922068045433438E-001  9.034293845985158E-001 
 9.147931273330744E-001  9.262998083549381E-001  9.379512256064306E-001  9.497491996451991E-001 
 9.616955739286935E-001  9.737922151021975E-001  9.860410132905068E-001  9.984438823932605E-001 
 1.011002760383986E+000  1.023719609612925E+000  1.036596417113637E+000  1.049635194913496E+000 
 1.062837980348061E+000  1.076206836379414E+000  1.089743851918513E+000  1.103451142151573E+000 
 1.117330848870584E+000  1.131385140807959E+000  1.145616213975405E+000  1.160026292007061E+000 
 1.174617626506933E+000  1.189392497400725E+000  1.204353213292075E+000  1.219502111823276E+000 
 1.234841560040547E+000  1.250373954763878E+000  1.266101722961546E+000  1.282027322129333E+000 
 1.298153240674505E+000  1.314481998304648E+000  1.331016146421358E+000  1.347758268518920E+000 
 1.364710980587976E+000  1.381876931524273E+000  1.399258803542573E+000  1.416859312595738E+000 
 1.434681208799119E+000  1.452727276860259E+000  1.471000336514003E+000  1.489503242963103E+000 
 1.508238887324330E+000  1.527210197080239E+000  1.546420136536577E+000  1.565871707285462E+000 
 1.585567948674405E+000  1.605511938281188E+000  1.625706792394766E+000  1.646155666502186E+000 
 1.666861755781623E+000  1.687828295601661E+000  1.709058562026797E+000  1.730555872329356E+000 
 1.752323585507812E+000  1.774365102811632E+000  1.796683868272743E+000  1.819283369243650E+000 
 1.842167136942362E+000  1.865338747004142E+000  1.888801820040200E+000  1.912560022203440E+000 
 1.936617065761279E+000  1.960976709675721E+000  1.985642760190692E+000  2.010619071426761E+000 
 2.035909545983380E+000  2.061518135548645E+000  2.087448841516781E+000  2.113705715613356E+000 
 2.140292860528359E+000  2.167214430557283E+000  2.194474632250210E+000  2.222077725069119E+000 
 2.250028022053426E+000  2.278329890493893E+000  2.306987752615052E+000  2.336006086266155E+000 
 2.365389425620879E+000  2.395142361885783E+000  2.425269544017682E+000  2.455775679450088E+000 
 2.486665534828718E+000  2.517943936756324E+000  2.549615772546851E+000  2.581685990989067E+000 
 2.614159603119860E+000  2.647041683007185E+000  2.680337368542929E+000  2.714051862245700E+000 
 2.748190432073724E+000  2.782758412248001E+000  2.817761204085754E+000  2.853204276844424E+000 
 2.889093168576245E+000  2.925433486993557E+000  2.962230910345058E+000  2.999491188303001E+000 
 3.037220142861627E+000  3.075423669246855E+000  3.114107736837394E+000  3.153278390097520E+000 
 3.192941749521490E+000  3.233104012589912E+000  3.273771454738108E+000  3.314950430336641E+000 
 3.356647373684239E+000  3.398868800013122E+000  3.441621306507058E+000  3.484911573332176E+000 
 3.528746364680728E+000  3.573132529828058E+000  3.618077004202762E+000  3.663586810470407E+000 
 3.709669059630821E+000  3.756330952129175E+000  3.803579778981121E+000  3.851422922911969E+000 
 3.899867859510302E+000  3.948922158396035E+000  3.998593484403154E+000  4.048889598777420E+000 
 4.099818360389017E+000  4.151387726960571E+000  4.203605756310533E+000  4.256480607612214E+000 
 4.310020542668719E+000  4.364233927203812E+000  4.419129232169134E+000  4.474715035067780E+000 
 4.531000021294525E+000  4.587992985492996E+000  4.645702832929786E+000  4.704138580885979E+000 
 4.763309360066087E+000  4.823224416024725E+000  4.883893110611302E+000  4.945324923432760E+000 
 5.007529453334847E+000  5.070516419901923E+000  5.134295664975648E+000  5.198877154192838E+000 
 5.264270978542561E+000  5.330487355942922E+000  5.397536632837620E+000  5.465429285812563E+000 
 5.534175923232927E+000  5.603787286900654E+000  5.674274253732952E+000  5.745647837461808E+000 
 5.817919190354867E+000  5.891099604958080E+000  5.965200515860091E+000  6.040233501479000E+000 
 6.116210285871476E+000  6.193142740564636E+000  6.271042886411066E+000  6.349922895467023E+000 
 6.429795092894415E+000  6.510671958886603E+000  6.592566130618421E+000  6.675490404220839E+000 
 6.759457736780297E+000  6.844481248363349E+000  6.930574224066675E+000  7.017750116092862E+000 
 7.106022545852425E+000  7.195405306092080E+000  7.285912363049978E+000  7.377557858637918E+000 
 7.470356112651016E+000  7.564321625005287E+000  7.659469078003183E+000  7.755813338627829E+000 
 7.853369460865972E+000  7.952152688060168E+000  8.052178455290667E+000  8.153462391787075E+000 
 8.256020323370548E+000  8.359868274926566E+000  8.465022472908810E+000  8.571499347874683E+000 
 8.679315537052497E+000  8.788487886941182E+000  8.899033455942533E+000  9.010969517026584E+000 
 9.124313560430645E+000  9.239083296392069E+000  9.355296657915614E+000  9.472971803575476E+000 
 9.592127120352538E+000  9.712781226507508E+000  9.834952974489909E+000  9.958661453883940E+000 
 1.008392599439121E+001  1.021076616885100E+001  1.033920179629865E+001  1.046925294506223E+001 
 1.060093993589833E+001  1.073428334516721E+001  1.086930400804783E+001  1.100602302179349E+001 
 1.114446174902822E+001  1.128464182108482E+001  1.142658514138476E+001  1.157031388886060E+001 
 1.171585052142157E+001  1.186321777946258E+001  1.201243868941753E+001  1.216353656735722E+001 
 1.231653502263245E+001  1.247145796156317E+001  1.262832959117375E+001  1.278717442297548E+001 
 1.294801727679653E+001  1.311088328466000E+001  1.327579789471102E+001  1.344278687519289E+001 
 1.361187631847357E+001  1.378309264512261E+001  1.395646260803935E+001  1.413201329663327E+001 
 1.430977214105656E+001  1.448976691649035E+001  1.467202574748453E+001  1.485657711235219E+001 
 1.504344984761963E+001  1.523267315253186E+001  1.542427659361529E+001  1.561829010929744E+001 
 1.581474401458480E+001  1.601366900579981E+001  1.621509616537701E+001  1.641905696671992E+001 
 1.662558327911874E+001  1.683470737272990E+001  1.704646192361856E+001  1.726088001886405E+001 
 1.747799516173003E+001  1.769784127689931E+001  1.792045271577461E+001  1.814586426184623E+001 
 1.837411113612678E+001  1.860522900265477E+001  1.883925397406709E+001  1.907622261724158E+001 
 1.931617195901093E+001  1.955913949194790E+001  1.980516318022385E+001  2.005428146554068E+001 
 2.030653327313721E+001  2.056195801787167E+001  2.082059561038001E+001  2.108248646331231E+001 
 2.134767149764718E+001  2.161619214908570E+001  2.188809037452604E+001  2.216340865861903E+001 
 2.244219002040673E+001  2.272447802004415E+001  2.301031676560547E+001  2.329975091997631E+001 
 2.359282570783207E+001  2.388958692270464E+001  2.419008093413768E+001  2.449435469493174E+001 
 2.480245574848108E+001  2.511443223620206E+001  2.543033290505565E+001  2.575020711516412E+001 
 2.607410484752349E+001  2.640207671181352E+001  2.673417395430516E+001  2.707044846586825E+001 
 2.741095279007945E+001  2.775574013143206E+001  2.810486436364975E+001  2.845838003810400E+001 
 2.881634239233822E+001  2.917880735869861E+001  2.954583157307349E+001  2.991747238374316E+001 
 3.029378786034033E+001  3.067483680292385E+001  3.106067875116633E+001  3.145137399365706E+001 
 3.184698357732268E+001  3.224756931696540E+001  3.265319380492207E+001  3.306392042084425E+001 
 3.347981334160121E+001  3.390093755130807E+001  3.432735885147924E+001  3.475914387131051E+001 
 3.519636007808977E+001  3.563907578773872E+001  3.608736017548782E+001  3.654128328668459E+001 
 3.700091604773871E+001  3.746633027720431E+001  3.793759869700151E+001  3.841479494377982E+001 
 3.889799358042353E+001  3.938727010770277E+001  3.988270097607043E+001  4.038436359760751E+001 
 4.089233635811942E+001  4.140669862938331E+001  4.192753078155063E+001  4.245491419570487E+001 
 4.298893127657730E+001  4.352966546542343E+001  4.407720125306026E+001  4.463162419306864E+001 
 4.519302091516101E+001  4.576147913871721E+001  4.633708768649136E+001  4.691993649848998E+001 
 4.751011664602584E+001  4.810772034594782E+001  4.871284097504968E+001  4.932557308466102E+001 
 4.994601241542041E+001  5.057425591223567E+001  5.121040173943142E+001  5.185454929608724E+001 
 5.250679923156957E+001  5.316725346125764E+001  5.383601518246866E+001  5.451318889058226E+001 
 5.519888039536785E+001  5.589319683751832E+001  5.659624670539015E+001  5.730813985195564E+001 
 5.802898751196743E+001  5.875890231933874E+001  5.949799832474348E+001  6.024639101343597E+001 
 6.100419732329654E+001  6.177153566310299E+001  6.254852593103185E+001  6.333528953339351E+001 
 6.413194940360131E+001  6.493863002138087E+001  6.575545743222007E+001  6.658255926706344E+001 
 6.742006476225569E+001  6.826810477973412E+001  6.912681182747690E+001  6.999632008020744E+001 
 7.087676540035902E+001  7.176828535930441E+001  7.267101925885081E+001  7.358510815300670E+001 
 7.451069487002171E+001  7.544792403470322E+001  7.639694209101529E+001  7.735789732495972E+001 